
    -----------------------------------------------------------------------
          Psi4: An Open-Source Ab Initio Electronic Structure Package
                               Psi4 1.10 release

                         Git: Rev {} zzzzzzz 


    D. G. A. Smith, L. A. Burns, A. C. Simmonett, R. M. Parrish,
    M. C. Schieber, R. Galvelis, P. Kraus, H. Kruse, R. Di Remigio,
    A. Alenaizan, A. M. James, S. Lehtola, J. P. Misiewicz, M. Scheurer,
    R. A. Shaw, J. B. Schriber, Y. Xie, Z. L. Glick, D. A. Sirianni,
    J. S. O'Brien, J. M. Waldrop, A. Kumar, E. G. Hohenstein,
    B. P. Pritchard, B. R. Brooks, H. F. Schaefer III, A. Yu. Sokolov,
    K. Patkowski, A. E. DePrince III, U. Bozkaya, R. A. King,
    F. A. Evangelista, J. M. Turney, T. D. Crawford, C. D. Sherrill,
    J. Chem. Phys. 152(18) 184108 (2020). https://doi.org/10.1063/5.0006002

                            Additional Code Authors
    E. T. Seidl, C. L. Janssen, E. F. Valeev, M. L. Leininger,
    J. F. Gonthier, R. M. Richard, H. R. McAlexander, M. Saitow, X. Wang,
    P. Verma, M. H. Lechner, A. Jiang, S. Behnle, A. G. Heide,
    M. F. Herbst, D. L. Poole, T. Győri, E. C. Mitchell, J. P. Pederson,
    and A. M. Wallace

             Previous Authors, Complete List of Code Contributors,
                       and Citations for Specific Modules
    https://github.com/psi4/psi4/blob/master/codemeta.json
    https://github.com/psi4/psi4/graphs/contributors
    https://psicode.org/psi4manual/master/introduction.html#citing-psifour

    -----------------------------------------------------------------------


    Psi4 started on: Tuesday, 05 May 2026 08:40AM

    Process ID: 7017
    Host:       debian
    PSIDATADIR: /home/vdwv/DIPLOM_ITMO/CALCULATIONS_AND_SOFTS/softwares/Psi4_Shenanigans/psi4conda/share/psi4
    Memory:     500.0 MiB
    Threads:    1
    Addons:     adcc, a̶m̶b̶i̶t̶, b̶s̶e̶, c̶c̶t̶3̶, c̶f̶o̶u̶r̶, c̶h̶e̶m̶p̶s̶2̶, c̶p̶p̶e̶, ddx, dftd3, dftd4,
                dkh, ecpint, einsums, f̶o̶r̶t̶e̶, g̶a̶u̶x̶c̶, gcp, g̶d̶m̶a̶, geometric,
                g̶p̶u̶_̶d̶f̶c̶c̶, i̶n̶t̶e̶g̶r̶a̶t̶o̶r̶x̶x̶, i̶p̶i̶, libefp, m̶d̶i̶, m̶p̶2̶d̶,
                m̶r̶c̶c̶, ooo, o̶p̶e̶n̶f̶e̶r̶m̶i̶o̶n̶p̶s̶i̶4̶, pcmsolver, p̶s̶i̶4̶f̶o̶c̶k̶c̶i̶,
                p̶s̶i̶x̶a̶s̶, r̶e̶s̶p̶, s̶i̶m̶i̶n̶t̶, s̶n̶s̶m̶p̶2̶, v̶2̶r̶d̶m̶_̶c̶a̶s̶s̶c̶f̶

  ==> Input File <==

--------------------------------------------------------------------------
#! Sample HF/3-21G CCl2O computation

memory 600 mb

molecule ccl2o {
  O1   0.000  0.000  1.712
  C2   0.000  0.000  0.548
  Cl3  0.000  1.501 -0.500
  Cl4  0.000 -1.501 -0.500
  units angstrom
}


set basis 3-21G
energy('scf')

--------------------------------------------------------------------------

  Memory set to 572.205 MiB by Python driver.

Scratch directory: /tmp/
   => Libint2 <=

    Primary   basis highest AM E, G, H:  6, 6, 3
    Auxiliary basis highest AM E, G, H:  7, 7, 4
    Onebody   basis highest AM E, G, H:  -, -, -
    Solid Harmonics ordering:            Gaussian

*** tstart() called on debian
*** at Tue May  5 08:40:50 2026

   => Loading Basis Set <=

    Name: 3-21G
    Role: ORBITAL
    Keyword: BASIS
    atoms 1   entry O          line    90 file /home/vdwv/DIPLOM_ITMO/CALCULATIONS_AND_SOFTS/softwares/Psi4_Shenanigans/psi4conda/share/psi4/basis/3-21g.gbs 
    atoms 2   entry C          line    68 file /home/vdwv/DIPLOM_ITMO/CALCULATIONS_AND_SOFTS/softwares/Psi4_Shenanigans/psi4conda/share/psi4/basis/3-21g.gbs 
    atoms 3-4 entry CL         line   213 file /home/vdwv/DIPLOM_ITMO/CALCULATIONS_AND_SOFTS/softwares/Psi4_Shenanigans/psi4conda/share/psi4/basis/3-21g.gbs 


         ---------------------------------------------------------
                                   SCF
               by Justin Turney, Rob Parrish, Andy Simmonett
                          and Daniel G. A. Smith
                              RHF Reference
                        1 Threads,    572 MiB Core
         ---------------------------------------------------------

  ==> Geometry <==

    Molecular point group: c2v
    Full point group: C2v

    Geometry (in Angstrom), charge = 0, multiplicity = 1:

       Center              X                  Y                   Z               Mass       
    ------------   -----------------  -----------------  -----------------  -----------------
         O            0.000000000000     0.000000000000     1.722308708717    15.994914619570
         C            0.000000000000     0.000000000000     0.558308708717    12.000000000000
         CL          -0.000000000000     1.501000000000    -0.489691291283    34.968852682000
         CL           0.000000000000    -1.501000000000    -0.489691291283    34.968852682000

  Running in c2v symmetry.

  Rotational constants: A =      0.24806  B =      0.10699  C =      0.07475 [cm^-1]
  Rotational constants: A =   7436.65211  B =   3207.33583  C =   2240.87446 [MHz]
  Nuclear repulsion =  185.578616886355036

  Charge       = 0
  Multiplicity = 1
  Electrons    = 48
  Nalpha       = 24
  Nbeta        = 24

  ==> Algorithm <==

  SCF Algorithm Type is DF.
  DIIS enabled.
  MOM disabled.
  Fractional occupation disabled.
  Guess Type is SAD.
  Energy threshold   = 1.00e-06
  Density threshold  = 1.00e-06
  Integral threshold = 1.00e-12

  ==> Primary Basis <==

  Basis Set: 3-21G
    Blend: 3-21G
    Number of shells: 24
    Number of basis functions: 44
    Number of Cartesian functions: 44
    Spherical Harmonics?: false
    Max angular momentum: 1

   => Loading Basis Set <=

    Name: (3-21G AUX)
    Role: JKFIT
    Keyword: DF_BASIS_SCF
    atoms 1   entry O          line   318 file /home/vdwv/DIPLOM_ITMO/CALCULATIONS_AND_SOFTS/softwares/Psi4_Shenanigans/psi4conda/share/psi4/basis/def2-universal-jkfit.gbs 
    atoms 2   entry C          line   198 file /home/vdwv/DIPLOM_ITMO/CALCULATIONS_AND_SOFTS/softwares/Psi4_Shenanigans/psi4conda/share/psi4/basis/def2-universal-jkfit.gbs 
    atoms 3-4 entry CL         line   986 file /home/vdwv/DIPLOM_ITMO/CALCULATIONS_AND_SOFTS/softwares/Psi4_Shenanigans/psi4conda/share/psi4/basis/def2-universal-jkfit.gbs 

  ==> Integral Setup <==

  DFHelper Memory: AOs need 0.009 GiB; user supplied 0.419 GiB. 
  SCF_SUBTYPE=INCORE selected. In-core MEM_DF algorithm will be used.
  Using in-core AOs.

  ==> MemDFJK: Density-Fitted J/K Matrices <==

    J tasked:                   Yes
    K tasked:                   Yes
    wK tasked:                   No
    OpenMP threads:               1
    Memory [MiB]:               429
    Algorithm:                 Core
    Schwarz Cutoff:           1E-12
    Mask sparsity (%):       5.4752
    Fitting Condition:        1E-10

   => Auxiliary Basis Set <=

  Basis Set: (3-21G AUX)
    Blend: DEF2-UNIVERSAL-JKFIT
    Number of shells: 126
    Number of basis functions: 492
    Number of Cartesian functions: 492
    Spherical Harmonics?: false
    Max angular momentum: 4

  Minimum eigenvalue in the overlap matrix is 3.5307967195E-02.
  Reciprocal condition number of the overlap matrix is 1.0969238203E-02.
    Using symmetric orthogonalization.

  ==> Pre-Iterations <==

  SCF Guess: Superposition of Atomic Densities via on-the-fly atomic UHF (no occupation information).

   -------------------------
    Irrep   Nso     Nmo    
   -------------------------
     A1        20      20 
     A2         3       3 
     B1         7       7 
     B2        14      14 
   -------------------------
    Total      44      44
   -------------------------

  ==> Iterations <==

                           Total Energy        Delta E     RMS |[F,P]|

   @DF-RHF iter SAD: -1027.50217199322424   -1.02750e+03   0.00000e+00 
   @DF-RHF iter   1: -1025.95851478510849    1.54366e+00   3.98203e-02 ADIIS/DIIS
   @DF-RHF iter   2: -1026.46802295904854   -5.09508e-01   2.31432e-02 ADIIS/DIIS
   @DF-RHF iter   3: -1026.63720371539080   -1.69181e-01   4.87235e-03 ADIIS/DIIS
   @DF-RHF iter   4: -1026.64673663764529   -9.53292e-03   1.15429e-03 ADIIS/DIIS
   @DF-RHF iter   5: -1026.64754044256506   -8.03805e-04   5.06949e-04 ADIIS/DIIS
   @DF-RHF iter   6: -1026.64770857035637   -1.68128e-04   2.46867e-04 ADIIS/DIIS
   @DF-RHF iter   7: -1026.64777080528643   -6.22349e-05   7.24322e-05 DIIS
   @DF-RHF iter   8: -1026.64777731721915   -6.51193e-06   1.84233e-05 DIIS
   @DF-RHF iter   9: -1026.64777777515360   -4.57934e-07   2.95708e-06 DIIS
   @DF-RHF iter  10: -1026.64777778246753   -7.31393e-09   3.02283e-07 DIIS
  Energy and wave function converged.


  ==> Post-Iterations <==

    Orbital Energies [Eh]
    ---------------------

    Doubly Occupied:                                                      

       1B2  -104.158853     1A1  -104.158584     2A1   -20.578322  
       3A1   -11.456142     2B2   -10.554639     4A1   -10.553719  
       3B2    -8.017797     5A1    -8.017711     1A2    -8.013048  
       4B2    -8.012996     1B1    -8.012942     6A1    -8.012805  
       7A1    -1.547332     8A1    -1.195447     5B2    -1.138077  
       9A1    -0.817298     6B2    -0.722729    10A1    -0.705989  
       2B1    -0.668201    11A1    -0.531397     3B1    -0.505045  
       2A2    -0.504196     7B2    -0.488904     8B2    -0.477991  

    Virtual:                                                              

      12A1     0.062612     4B1     0.096445     9B2     0.234159  
      13A1     0.432699    14A1     0.623760    10B2     0.698681  
      15A1     0.738329     5B1     0.741309    11B2     0.778184  
      16A1     0.794115     3A2     0.795516     6B1     0.904503  
      12B2     0.944376    17A1     1.088624    13B2     1.093075  
      18A1     1.581280    19A1     1.807168     7B1     1.810653  
      14B2     1.915670    20A1     3.370607  

    Final Occupation by Irrep:
             A1    A2    B1    B2 
    DOCC [    11,    2,    3,    8 ]
    NA   [    11,    2,    3,    8 ]
    NB   [    11,    2,    3,    8 ]

  @DF-RHF Final Energy: -1026.64777778246753

   => Energetics <=

    Nuclear Repulsion Energy =            185.5786168863550358
    One-Electron Energy =               -1786.7524610471650703
    Two-Electron Energy =                 574.5260663783424206
    Total Energy =                      -1026.6477777824675286

Computation Completed


Properties will be evaluated at   0.000000,   0.000000,   0.000000 [a0]

Properties computed using the SCF density matrix


 Multipole Moments:

 ------------------------------------------------------------------------------------
     Multipole            Electronic (a.u.)      Nuclear  (a.u.)        Total (a.u.)
 ------------------------------------------------------------------------------------

 L = 1.  Multiply by 2.5417464519 to convert [e a0] to [Debye]
 Dipole X            :          0.0000000            0.0000000            0.0000000
 Dipole Y            :          0.0000000            0.0000000            0.0000000
 Dipole Z            :         -1.1615639            0.9048349           -0.2567290
 Magnitude           :                                                    0.2567290

 ------------------------------------------------------------------------------------

*** tstop() called on debian at Tue May  5 08:40:51 2026
Module time:
	user time   =       0.95 seconds =       0.02 minutes
	system time =       0.04 seconds =       0.00 minutes
	total time  =          1 seconds =       0.02 minutes
Total time:
	user time   =       0.95 seconds =       0.02 minutes
	system time =       0.04 seconds =       0.00 minutes
	total time  =          1 seconds =       0.02 minutes

    Psi4 stopped on: Tuesday, 05 May 2026 08:40AM
    Psi4 wall time for execution: 0:00:01.06

*** Psi4 exiting successfully. Buy a developer a beer!
