

     ************************************************************************
     *************** Dalton - An Electronic Structure Program ***************
     ************************************************************************

    This is output from DALTON release Dalton2025.0-dev (2025)
         ( Web site: http://daltonprogram.org )

   ----------------------------------------------------------------------------

    NOTE:
     
    Dalton is an experimental code for the evaluation of molecular
    properties using (MC)SCF, DFT, CI, and CC wave functions.
    The authors accept no responsibility for the performance of
    the code or for the correctness of the results.
     
    The code (in whole or part) is provided under a licence and
    is not to be reproduced for further distribution without
    the written permission of the authors or their representatives.
     
    See the home page "http://daltonprogram.org" for further information.
     
    If results obtained with this code are published,
    the appropriate citations would be both of:
     
       K. Aidas, C. Angeli, K. L. Bak, V. Bakken,
       R. Bast, L. Boman, O. Christiansen, R. Cimiraglia,
       S. Coriani, P. Dahle, E. K. Dalskov, U. Ekstroem,
       T. Enevoldsen, J. J. Eriksen, P. Ettenhuber, B. Fernandez,
       L. Ferrighi, H. Fliegl, L. Frediani, K. Hald, A. Halkier,
       C. Haettig, H. Heiberg, T. Helgaker, A. C. Hennum,
       H. Hettema, E. Hjertenaes, S. Hoest, I.-M. Hoeyvik,
       M. F. Iozzi, B. Jansik, H. J. Aa. Jensen, D. Jonsson,
       P. Joergensen, J. Kauczor, S. Kirpekar,
       T. Kjaergaard, W. Klopper, S. Knecht, R. Kobayashi, H. Koch,
       J. Kongsted, A. Krapp, K. Kristensen, A. Ligabue,
       O. B. Lutnaes, J. I. Melo, K. V. Mikkelsen, R. H. Myhre,
       C. Neiss, C. B. Nielsen, P. Norman, J. Olsen,
       J. M. H. Olsen, A. Osted, M. J. Packer, F. Pawlowski,
       T. B. Pedersen, P. F. Provasi, S. Reine, Z. Rinkevicius,
       T. A. Ruden, K. Ruud, V. Rybkin, P. Salek, C. C. M. Samson,
       A. Sanchez de Meras, T. Saue, S. P. A. Sauer,
       B. Schimmelpfennig, K. Sneskov, A. H. Steindal,
       K. O. Sylvester-Hvid, P. R. Taylor, A. M. Teale,
       E. I. Tellgren, D. P. Tew, A. J. Thorvaldsen, L. Thoegersen,
       O. Vahtras, M. A. Watson, D. J. D. Wilson, M. Ziolkowski
       and H. Agren,
       "The Dalton quantum chemistry program system",
       WIREs Comput. Mol. Sci. 2014, 4:269-284 (doi: 10.1002/wcms.1172)
     
    and
     
       Dalton, a molecular electronic structure program,
       Release Dalton2025.0-dev (2025), see http://daltonprogram.org
   ----------------------------------------------------------------------------

    Authors in alphabetical order (Major contribution(s) in parenthesis):

  Kestutis Aidas,              Vilnius University,        Lithuania   (QM/MM)
  Celestino Angeli,            University of Ferrara,     Italy       (NEVPT2)
  Juan J. Aucar,               Northeast National UniversiArgentina   (LRESC, Relativistic Effects on NMR Shieldings and EFG)
  Keld L. Bak,                 UNI-C,                     Denmark     (AOSOPPA, non-adiabatic coupling, magnetic properties)
  Vebjoern Bakken,             University of Oslo,        Norway      (DALTON; geometry optimizer, symmetry detection)
  Radovan Bast,                UiT The Arctic U. of NorwayNorway      (DALTON installation and execution frameworks)
  Pablo Baudin,                University of Valencia,    Spain       (Cholesky excitation energies)
  Linus Boman,                 NTNU,                      Norway      (Cholesky decomposition and subsystems)
  Bruno N. Cabral Tenorio,     Technical Univ. of Denmark,Denmark     (Lanczos-based CC methods)
  Ove Christiansen,            Aarhus University,         Denmark     (CC module)
  Renzo Cimiraglia,            University of Ferrara,     Italy       (NEVPT2)
  Sonia Coriani,               Technical Univ. of Denmark,Denmark     (CC and RESPONS modules)
  Janusz Cukras,               University of Warsaw,      Poland      (MChD in RESPONS)
  Paal Dahle,                  University of Oslo,        Norway      (Parallelization)
  Erik K. Dalskov,             UNI-C,                     Denmark     (SOPPA)
  Thomas Enevoldsen,           Univ. of Southern Denmark, Denmark     (SOPPA)
  Janus J. Eriksen,            Aarhus University,         Denmark     (Polarizable embedding, TDA)
  Rasmus Faber,                Technical Univ. of Denmark,Denmark     (Vib.avg. NMR w. SOPPA, parallel AO-SOPPA, CVS-CC and EOMCC)
  Tobias Fahleson,             KTH Stockholm,             Sweden      (Damped cubic response)
  Berta Fernandez,             U. of Santiago de CompostelSpain       (Doublet spin, ESR in RESPONS)
  Lara Ferrighi,               Aarhus University,         Denmark     (PCM Cubic response)
  Heike Fliegl,                University of Oslo,        Norway      (CCSD(R12))
  Luca Frediani,               UiT The Arctic U. of NorwayNorway      (PCM)
  Emmanuel Fromager,           Univ. Strasbourg,          France      (MC-srDFT)
  Bin Gao,                     UiT The Arctic U. of NorwayNorway      (Gen1Int library)
  Andre S. P. Gomes,           CNRS/Universite de Lille,  France      (Frozen density embedding)
  Christof Haettig,            Ruhr-University Bochum,    Germany     (CC module)
  Kasper Hald,                 Aarhus University,         Denmark     (CC module)
  Asger Halkier,               Aarhus University,         Denmark     (CC module)
  Frederik Beyer Hansen,       University of Copenhagen,  Denmark     (Parallel AO-SOPPA)
  Erik D. Hedegaard,           Univ. of Southern Denmark, Denmark     (Polarizable embedding, QM/MM, and MC-srDFT)
  Hanne Heiberg,               University of Oslo,        Norway      (Geometry analysis, selected one-electron integrals)
  Trygve Helgaker,             University of Oslo,        Norway      (DALTON; ABACUS, ERI, DFT modules, London, and much more)
  Alf Christian Hennum,        University of Oslo,        Norway      (Parity violation)
  Hinne Hettema,               University of Auckland,    New Zealand (Quadratic response in RESPONS; SIRIUS supersymmetry)
  Andreas E. Hillers-Bendtsen, University of Copenhagen,  Denmark     (MP3)
  Eirik Hjertenaes,            NTNU,                      Norway      (Cholesky decomposition)
  Nicolai Machholdt Hoeyer,    Aarhus University,         Denmark     (MP3)
  Pi A. B. Haase,              University of Copenhagen,  Denmark     (Triplet AO-SOPPA)
  Maria Francesca Iozzi,       University of Oslo,        Norway      (RPA)
  Christoph Jacob,             TU Braunschweig            Germany     (Frozen density embedding)
  Brano Jansik,                Technical Univ. of Ostrava Czech Rep.  (DFT cubic response)
  Hans Joergen Aa. Jensen,     Univ. of Southern Denmark, Denmark     (DALTON; SIRIUS, RESPONS, ABACUS, MC-srDFT, and much more)
  Dan Jonsson,                 UiT The Arctic U. of NorwayNorway      (Cubic response in RESPONS module)
  Poul Joergensen,             Aarhus University,         Denmark     (RESPONS, ABACUS, and CC modules)
  Maciej Kaminski,             University of Warsaw,      Poland      (CPPh in RESPONS)
  Joanna Kauczor,              Linkoeping University,     Sweden      (Complex polarization propagator (CPP) module)
  Sheela Kirpekar,             Univ. of Southern Denmark, Denmark     (Mass-velocity & Darwin integrals)
  Frederik Oersted Kjeldal,    Technical Univ. of Denmark,Denmark     (MP3)
  Erik Kjellgren,              Univ. of Southern Denmark, Denmark     (MC-srDFT)
  Wim Klopper,                 KIT Karlsruhe,             Germany     (R12 code in CC, SIRIUS, and ABACUS modules)
  Stefan Knecht,               ETH Zurich,                Switzerland (Parallel CI and MCSCF, MC-srDFT)
  Rika Kobayashi,              Australian National Univ., Australia   (DIIS in CC, London in MCSCF)
  Henrik Koch,                 NTNU,                      Norway      (CC module, Cholesky decomposition)
  Jacob Kongsted,              Univ. of Southern Denmark, Denmark     (Polarizable embedding, polarizable density embedding, QM/MM)
  Andrea Ligabue,              University of Modena,      Italy       (CTOCD, AOSOPPA)
  Nanna H. List,               Univ. of Southern Denmark, Denmark     (Polarizable embedding)
  Ola B. Lutnaes,              University of Oslo,        Norway      (DFT Hessian)
  Juan I. Melo,                University of Buenos Aires,Argentina   (LRESC, Relativistic Effects on NMR Shieldings)
  Kurt V. Mikkelsen,           University of Copenhagen,  Denmark     (MC-SCRF, QM/MM, and MP3)
  Rolf H. Myhre,               NTNU,                      Norway      (Subsystems and CC3)
  Christian Neiss,             Univ. Erlangen-Nuernberg,  Germany     (CCSD(R12))
  Christian B. Nielsen,        University of Copenhagen,  Denmark     (QM/MM)
  Patrick Norman,              KTH Stockholm,             Sweden      (Cubic response and complex frequency response in RESPONS)
  Jeppe Olsen,                 Aarhus University,         Denmark     (SIRIUS CI/density modules)
  Jogvan Magnus H. Olsen,      Aarhus University,         Denmark     (Polarizable embedding and polarizable density embedding)
  Anders Osted,                Copenhagen University,     Denmark     (QM/MM)
  Martin J. Packer,            University of Sheffield,   UK          (SOPPA)
  Filip Pawlowski,             Kazimierz Wielki UniversityPoland      (CC3)
  Morten N. Pedersen,          Univ. of Southern Denmark, Denmark     (Polarizable embedding)
  Thomas B. Pedersen,          University of Oslo,        Norway      (Cholesky decomposition)
  Patricio F. Provasi,         University of Northeastern,Argentina   (Analysis of coupling constants in localized orbitals)
  Peter Reinholdt,             Univ. of Southern Denmark, Denmark     (Polarizable embedding and polarizable density embedding)
  Zilvinas Rinkevicius,        KTH Stockholm,             Sweden      (open-shell DFT, ESR)
  Elias Rudberg,               KTH Stockholm,             Sweden      (DFT grid and basis info)
  Torgeir A. Ruden,            University of Oslo,        Norway      (Numerical derivatives in ABACUS)
  Kenneth Ruud,                UiT The Arctic U. of NorwayNorway      (DALTON; ABACUS magnetic properties and much more)
  Pawel Salek,                 KTH Stockholm,             Sweden      (DALTON; DFT code)
  Claire C. M. Samson,         University of Karlsruhe    Germany     (Boys localization, r12 integrals in ERI)
  Alfredo Sanchez de Meras,    University of Valencia,    Spain       (CC module, Cholesky decomposition)
  Trond Saue,                  Paul Sabatier University,  France      (direct Fock matrix construction)
  Stephan P. A. Sauer,         University of Copenhagen,  Denmark     (SOPPA(CCSD), SOPPA prop., AOSOPPA, vibrational g-factors)
  Bernd Schimmelpfennig,       Forschungszentrum KarlsruheGermany     (AMFI module)
  Anna K. Schnack-Petersen,    University of Copenhagen,  Denmark     (RPA(D) and HRPA(D) properties in AOSOPPA)
  Kristian Sneskov,            Aarhus University,         Denmark     (Polarizable embedding, QM/MM)
  Arnfinn H. Steindal,         UiT The Arctic U. of NorwayNorway      (parallel QM/MM, polarizable embedding)
  Casper Steinmann,            Aalborg University,        Denmark     (QFIT, polarizable embedding)
  K. O. Sylvester-Hvid,        University of Copenhagen,  Denmark     (MC-SCRF)
  Peter R. Taylor,             VLSCI/Univ. of Melbourne,  Australia   (Symmetry handling ABACUS, integral transformation)
  Andrew M. Teale,             University of Nottingham,  England     (DFT-AC, DFT-D)
  David P. Tew,                University of Bristol,     England     (CCSD(R12))
  Julien Toulouse,             Sorbonne Univ.,            France      (MC-srDFT)
  Olav Vahtras,                KTH Stockholm,             Sweden      (Triplet response, spin-orbit, ESR, TDDFT, open-shell DFT)
  Lucas Visscher,              Vrije Universiteit AmsterdaNetherlands (Frozen density embedding)
  David J. Wilson,             La Trobe University,       Australia   (DFT Hessian and DFT magnetizabilities)
  Luna Zamok,                  University of Copenhagen,  Denmark     (Block Lanczos RPA solver in SOPPA module)
  Hans Agren,                  KTH Stockholm,             Sweden      (SIRIUS module, RESPONS, MC-SCRF solvation)
 --------------------------------------------------------------------------------

     Date and time (Linux)  : Thu May  7 16:50:56 2026
     Host name              : debian                                  

 * Work memory size             :    64000000 =  488.28 megabytes.

 * Directories for basis set searches:
   1) /home/vdwv/DIPLOM_ITMO/CALCULATIONS_AND_SOFTS/softwares/Dalton_Shenanigans/dalton/dalton/build/diplom_files/c6h6_benzene/dft/c6h6_benzene_dft_b3lyp_ccpvtz
   2) /home/vdwv/DIPLOM_ITMO/CALCULATIONS_AND_SOFTS/softwares/Dalton_Shenanigans/dalton/dalton/build/basis


Compilation information
-----------------------

 Who compiled             | vdwv
 Host                     | debian
 System                   | Linux-6.12.73+deb13-amd64
 CMake generator          | Unix Makefiles
 Processor                | x86_64
 64-bit integers          | OFF
 MPI                      | OFF
 Fortran compiler         | /usr/bin/gfortran
 Fortran compiler version | GNU Fortran (Debian 14.2.0-19) 14.2.0
 C compiler               | /usr/bin/gcc
 C compiler version       | gcc (Debian 14.2.0-19) 14.2.0
 C++ compiler             | /usr/bin/g++
 C++ compiler version     | g++ (Debian 14.2.0-19) 14.2.0
 BLAS                     | /opt/intel/oneapi/mkl/2025.3/lib/intel64/libmkl_gf
                          | _lp64.so;/opt/intel/oneapi/mkl/2025.3/lib/intel64/
                          | libmkl_sequential.so;/opt/intel/oneapi/mkl/2025.3/
                          | lib/intel64/libmkl_core.so;/usr/lib/x86_64-linux-g
                          | nu/libpthread.a;/usr/lib/x86_64-linux-gnu/libm.so
 LAPACK                   | /opt/intel/oneapi/mkl/2025.3/lib/intel64/libmkl_la
                          | pack95_lp64.a;/opt/intel/oneapi/mkl/2025.3/lib/int
                          | el64/libmkl_gf_lp64.so
 Static linking           | OFF
 Last Git revision        | 1892235f9264b9be21ec2fefe6e0081d659ab244
 Git branch               | master
 Configuration time       | 2026-05-04 17:50:26.788788

 * Sequential calculation.


   Content of the .dal input file
 ----------------------------------

BASIS
cc-pVTZ
Benzene C6H6 using the cc-pVTZ basis
Using automatic symmetry detection
AtomTypes=2 Angstrom
Charge=6.0 Atoms=6
C1    0.000      1.391      0.000
C2    1.204      0.695      0.000
C3    1.204     -0.695      0.000
C4    0.000     -1.391      0.000
C5   -1.204     -0.695      0.000
C6   -1.204      0.695      0.000
Charge=1.0 Atoms=6
H7    0.000      2.473      0.000
H8    2.142      1.236      0.000
H9    2.142     -1.236      0.000
H10   0.000     -2.473      0.000
H11  -2.142     -1.236      0.000
H12  -2.142      1.236      0.000

**DALTON INPUT
.RUN WAVE FUN
**WAVE FUN
.DFT
 B3LYP
**END OF



       *******************************************************************
       *********** Output from DALTON general input processing ***********
       *******************************************************************

 --------------------------------------------------------------------------------
   Overall default print level:    0
   Print level for DALTON.STAT:    1

    HERMIT 1- and 2-electron integral sections will be executed
    "Old" integral transformation used (limited to max 255 basis functions)
    Wave function sections will be executed (SIRIUS module)
 --------------------------------------------------------------------------------


   ****************************************************************************
   *************** Output of molecule and basis set information ***************
   ****************************************************************************


    The two title cards from your ".mol" input:
    --------------------------------------------------------------------------------
 1: Benzene C6H6 using the cc-pVTZ basis
 2: Using automatic symmetry detection
    --------------------------------------------------------------------------------

  Coordinates are entered in Angstrom and converted to atomic units.
          - Conversion factor : 1 bohr = 0.52917721080 A

  Atomic type no.    1
  --------------------
  Nuclear charge:   6.00000
  Number of symmetry independent centers:    6
  Number of basis sets to read;    2
  Basis set file used for this atomic type with Z =   6 :
     "/home/vdwv/DIPLOM_ITMO/CALCULATIONS_AND_SOFTS/softwares/Dalton_Shenanigans/dalton/dalton/build/basis/cc-pVTZ"

  Atomic type no.    2
  --------------------
  Nuclear charge:   1.00000
  Number of symmetry independent centers:    6
  Number of basis sets to read;    2
  Basis set file used for this atomic type with Z =   1 :
     "/home/vdwv/DIPLOM_ITMO/CALCULATIONS_AND_SOFTS/softwares/Dalton_Shenanigans/dalton/dalton/build/basis/cc-pVTZ"


                      SYMADD: Addition of symmetry requested
                      --------------------------------------

 Symmetry test threshold:  5.00E-06

@  The molecule has been centered at center of mass and rotated
@  so the principal axes of inertia are along coordinate axes.

 Symmetry class found: D(2h)          

 Symmetry Independent Centres             
 ----------------------------
C3     6 :      0.00000000     2.27523025     1.31335966  Isotope  1
C4     6 :      0.00000000     0.00000000     2.62860904  Isotope  1
H10    1 :      0.00000000     0.00000000     4.67329271  Isotope  1
H9     1 :      0.00000000     4.04779336     2.33570149  Isotope  1

 The following symmetry elements were found:   X  Y  Z  


                         SYMGRP: Point group information
                         -------------------------------

@    Full point group is: D(2h)          
@    Represented as:      D2h

@  * The irrep name for each symmetry:    1: Ag     2: B3u    3: B2u    4: B1g    5: B1u    6: B2g    7: B3g    8: Au 


   * The point group was generated by:

      Reflection in the yz-plane
      Reflection in the xz-plane
      Reflection in the xy-plane

   * Group multiplication table

        |  E   C2z  C2y  C2x   i   Oxy  Oxz  Oyz
   -----+----------------------------------------
     E  |  E   C2z  C2y  C2x   i   Oxy  Oxz  Oyz
    C2z | C2z   E   C2x  C2y  Oxy   i   Oyz  Oxz
    C2y | C2y  C2x   E   C2z  Oxz  Oyz   i   Oxy
    C2x | C2x  C2y  C2z   E   Oyz  Oxz  Oxy   i 
     i  |  i   Oxy  Oxz  Oyz   E   C2z  C2y  C2x
    Oxy | Oxy   i   Oyz  Oxz  C2z   E   C2x  C2y
    Oxz | Oxz  Oyz   i   Oxy  C2y  C2x   E   C2z
    Oyz | Oyz  Oxz  Oxy   i   C2x  C2y  C2z   E 

   * Character table

        |  E   C2z  C2y  C2x   i   Oxy  Oxz  Oyz
   -----+----------------------------------------
    Ag  |   1    1    1    1    1    1    1    1
    B3u |   1   -1   -1    1   -1    1    1   -1
    B2u |   1   -1    1   -1   -1    1   -1    1
    B1g |   1    1   -1   -1    1    1   -1   -1
    B1u |   1    1   -1   -1   -1   -1    1    1
    B2g |   1   -1    1   -1    1   -1    1   -1
    B3g |   1   -1   -1    1    1   -1   -1    1
    Au  |   1    1    1    1   -1   -1   -1   -1

   * Direct product table

        | Ag   B3u  B2u  B1g  B1u  B2g  B3g  Au 
   -----+----------------------------------------
    Ag  | Ag   B3u  B2u  B1g  B1u  B2g  B3g  Au 
    B3u | B3u  Ag   B1g  B2u  B2g  B1u  Au   B3g
    B2u | B2u  B1g  Ag   B3u  B3g  Au   B1u  B2g
    B1g | B1g  B2u  B3u  Ag   Au   B3g  B2g  B1u
    B1u | B1u  B2g  B3g  Au   Ag   B3u  B2u  B1g
    B2g | B2g  B1u  Au   B3g  B3u  Ag   B1g  B2u
    B3g | B3g  Au   B1u  B2g  B2u  B1g  Ag   B3u
    Au  | Au   B3g  B2g  B1u  B1g  B2u  B3u  Ag 


                                 Isotopic Masses
                                 ---------------

                           C3  _1     12.000000
                           C3  _2     12.000000
                           C3  _3     12.000000
                           C3  _4     12.000000
                           C4  _1     12.000000
                           C4  _2     12.000000
                           H9  _1      1.007825
                           H9  _2      1.007825
                           H9  _3      1.007825
                           H9  _4      1.007825
                           H10 _1      1.007825
                           H10 _2      1.007825

                       Total mass:    78.046950 amu
                       Natural abundance:  93.495 %

 Center-of-mass coordinates (a.u.):    0.000000    0.000000    0.000000
 Center-of-mass coordinates (Angs):    0.000000    0.000000    0.000000


  Atoms and basis sets
  --------------------

  Number of atom types :    2
  Total number of atoms:   12

  Basis set used is "cc-pVTZ" from the basis set library.

  label    atoms   charge   prim   cont     basis
  ----------------------------------------------------------------------
  C4          6    6.0000    42    30      [10s5p2d1f|4s3p2d1f]                               
  H1          6    1.0000    16    14      [5s2p1d|3s2p1d]                                    
  ----------------------------------------------------------------------
  total:     12   42.0000   348   264
  ----------------------------------------------------------------------
  Spherical harmonic basis used.

  Threshold for neglecting AO integrals:  1.00D-12


  Cartesian Coordinates (bohr)
  ----------------------------

  Total number of coordinates:   36
  C3  / 1 :     1  x   0.0000000000    2  y   2.2752302545    3  z   1.3133596569
  C3  / 2 :     4  x   0.0000000000    5  y  -2.2752302545    6  z   1.3133596569
  C3  / 3 :     7  x   0.0000000000    8  y   2.2752302545    9  z  -1.3133596569
  C3  / 4 :    10  x   0.0000000000   11  y  -2.2752302545   12  z  -1.3133596569
  C4  / 1 :    13  x   0.0000000000   14  y   0.0000000000   15  z   2.6286090399
  C4  / 2 :    16  x   0.0000000000   17  y   0.0000000000   18  z  -2.6286090399
  H9  / 1 :    19  x   0.0000000000   20  y   4.0477933597   21  z   2.3357014905
  H9  / 2 :    22  x   0.0000000000   23  y  -4.0477933597   24  z   2.3357014905
  H9  / 3 :    25  x   0.0000000000   26  y   4.0477933597   27  z  -2.3357014905
  H9  / 4 :    28  x   0.0000000000   29  y  -4.0477933597   30  z  -2.3357014905
  H10 / 1 :    31  x   0.0000000000   32  y   0.0000000000   33  z   4.6732927071
  H10 / 2 :    34  x   0.0000000000   35  y   0.0000000000   36  z  -4.6732927071


  Cartesian Coordinates (xyz format; angstrom)
  --------------------------------------------

   12

  C        0.0000000000            1.2040000000            0.6950000000
  C        0.0000000000           -1.2040000000            0.6950000000
  C        0.0000000000            1.2040000000           -0.6950000000
  C        0.0000000000           -1.2040000000           -0.6950000000
  C        0.0000000000            0.0000000000            1.3910000000
  C        0.0000000000            0.0000000000           -1.3910000000
  H        0.0000000000            2.1420000000            1.2360000000
  H        0.0000000000           -2.1420000000            1.2360000000
  H        0.0000000000            2.1420000000           -1.2360000000
  H        0.0000000000           -2.1420000000           -1.2360000000
  H        0.0000000000            0.0000000000            2.4730000000
  H        0.0000000000            0.0000000000           -2.4730000000


  Symmetry Coordinates
  --------------------

  Number of coordinates in each symmetry:     6    4    6    2    6    4    6    2

  Symmetry  Ag  ( 1)

    1   C3    y    [  2  -    5  +    8  -   11 ]/4
    2   C3    z    [  3  +    6  -    9  -   12 ]/4
    3   C4    z    [ 15  -   18 ]/2
    4   H9    y    [ 20  -   23  +   26  -   29 ]/4
    5   H9    z    [ 21  +   24  -   27  -   30 ]/4
    6   H10   z    [ 33  -   36 ]/2

  Symmetry  B3u ( 2)

    7   C3    x    [  1  +    4  +    7  +   10 ]/4
    8   C4    x    [ 13  +   16 ]/2
    9   H9    x    [ 19  +   22  +   25  +   28 ]/4
   10   H10   x    [ 31  +   34 ]/2

  Symmetry  B2u ( 3)

   11   C3    y    [  2  +    5  +    8  +   11 ]/4
   12   C3    z    [  3  -    6  -    9  +   12 ]/4
   13   C4    y    [ 14  +   17 ]/2
   14   H9    y    [ 20  +   23  +   26  +   29 ]/4
   15   H9    z    [ 21  -   24  -   27  +   30 ]/4
   16   H10   y    [ 32  +   35 ]/2

  Symmetry  B1g ( 4)

   17   C3    x    [  1  -    4  +    7  -   10 ]/4
   18   H9    x    [ 19  -   22  +   25  -   28 ]/4

  Symmetry  B1u ( 5)

   19   C3    y    [  2  -    5  -    8  +   11 ]/4
   20   C3    z    [  3  +    6  +    9  +   12 ]/4
   21   C4    z    [ 15  +   18 ]/2
   22   H9    y    [ 20  -   23  -   26  +   29 ]/4
   23   H9    z    [ 21  +   24  +   27  +   30 ]/4
   24   H10   z    [ 33  +   36 ]/2

  Symmetry  B2g ( 6)

   25   C3    x    [  1  +    4  -    7  -   10 ]/4
   26   C4    x    [ 13  -   16 ]/2
   27   H9    x    [ 19  +   22  -   25  -   28 ]/4
   28   H10   x    [ 31  -   34 ]/2

  Symmetry  B3g ( 7)

   29   C3    y    [  2  +    5  -    8  -   11 ]/4
   30   C3    z    [  3  -    6  +    9  -   12 ]/4
   31   C4    y    [ 14  -   17 ]/2
   32   H9    y    [ 20  +   23  -   26  -   29 ]/4
   33   H9    z    [ 21  -   24  +   27  -   30 ]/4
   34   H10   y    [ 32  -   35 ]/2

  Symmetry  Au  ( 8)

   35   C3    x    [  1  -    4  -    7  +   10 ]/4
   36   H9    x    [ 19  -   22  -   25  +   28 ]/4


   Interatomic separations (in Angstrom):
   --------------------------------------

            C3  _1      C3  _2      C3  _3      C3  _4      C4  _1      C4  _2
            ------      ------      ------      ------      ------      ------
 C3  _1:    0.000000
 C3  _2:    2.408000    0.000000
 C3  _3:    1.390000    2.780389    0.000000
 C3  _4:    2.780389    1.390000    2.408000    0.000000
 C4  _1:    1.390695    1.390695    2.408529    2.408529    0.000000
 C4  _2:    2.408529    2.408529    1.390695    1.390695    2.782000    0.000000
 H9  _1:    1.082832    3.389454    2.146766    3.863221    2.147601    3.389586
 H9  _2:    3.389454    1.082832    3.863221    2.146766    2.147601    3.389586
 H9  _3:    2.146766    3.863221    1.082832    3.389454    3.389586    2.147601
 H9  _4:    3.863221    2.146766    3.389454    1.082832    3.389586    2.147601
 H10 _1:    2.147301    2.147301    3.389077    3.389077    1.082000    3.864000
 H10 _2:    3.389077    3.389077    2.147301    2.147301    3.864000    1.082000

            H9  _1      H9  _2      H9  _3      H9  _4      H10 _1      H10 _2
            ------      ------      ------      ------      ------      ------
 H9  _1:    0.000000
 H9  _2:    4.284000    0.000000
 H9  _3:    2.472000    4.946053    0.000000
 H9  _4:    4.946053    2.472000    4.284000    0.000000
 H10 _1:    2.473526    2.473526    4.283088    4.283088    0.000000
 H10 _2:    4.283088    4.283088    2.473526    2.473526    4.946000    0.000000


  Max    interatomic separation is    4.9461 Angstrom (    9.3467 Bohr)
  between atoms    9 and    8, "H9  _3" and "H9  _2".

  Min HX interatomic separation is    1.0820 Angstrom (    2.0447 Bohr)

  Min YX interatomic separation is    1.3900 Angstrom (    2.6267 Bohr)


  Bond distances (Angstrom):
  --------------------------

                  atom 1     atom 2       distance
                  ------     ------       --------
  bond distance:  C3  _3     C3  _1       1.390000
  bond distance:  C3  _4     C3  _2       1.390000
  bond distance:  C4  _1     C3  _1       1.390695
  bond distance:  C4  _1     C3  _2       1.390695
  bond distance:  C4  _2     C3  _3       1.390695
  bond distance:  C4  _2     C3  _4       1.390695
  bond distance:  H9  _1     C3  _1       1.082832
  bond distance:  H9  _2     C3  _2       1.082832
  bond distance:  H9  _3     C3  _3       1.082832
  bond distance:  H9  _4     C3  _4       1.082832
  bond distance:  H10 _1     C4  _1       1.082000
  bond distance:  H10 _2     C4  _2       1.082000


  Bond angles (degrees):
  ----------------------

                  atom 1     atom 2     atom 3         angle
                  ------     ------     ------         -----
  bond angle:     C3  _3     C3  _1     C4  _1       120.031
  bond angle:     C3  _3     C3  _1     H9  _1       119.975
  bond angle:     C4  _1     C3  _1     H9  _1       119.994
  bond angle:     C3  _4     C3  _2     C4  _1       120.031
  bond angle:     C3  _4     C3  _2     H9  _2       119.975
  bond angle:     C4  _1     C3  _2     H9  _2       119.994
  bond angle:     C3  _1     C3  _3     C4  _2       120.031
  bond angle:     C3  _1     C3  _3     H9  _3       119.975
  bond angle:     C4  _2     C3  _3     H9  _3       119.994
  bond angle:     C3  _2     C3  _4     C4  _2       120.031
  bond angle:     C3  _2     C3  _4     H9  _4       119.975
  bond angle:     C4  _2     C3  _4     H9  _4       119.994
  bond angle:     C3  _1     C4  _1     C3  _2       119.938
  bond angle:     C3  _1     C4  _1     H10 _1       120.031
  bond angle:     C3  _2     C4  _1     H10 _1       120.031
  bond angle:     C3  _3     C4  _2     C3  _4       119.938
  bond angle:     C3  _3     C4  _2     H10 _2       120.031
  bond angle:     C3  _4     C4  _2     H10 _2       120.031




 Principal moments of inertia (u*A**2) and principal axes
 --------------------------------------------------------

   IA      88.077834          0.000000    0.000000    1.000000
   IB      88.108114          0.000000    1.000000    0.000000
   IC     176.185948          1.000000    0.000000    0.000000


 Rotational constants
 --------------------

@    The molecule is planar.

               A                   B                   C

           5737.8683           5735.8963           2868.4411 MHz
            0.191395            0.191329            0.095681 cm-1


@  Nuclear repulsion energy :  204.076413078321 Hartree


  Symmetry Orbitals
  -----------------

  Number of orbitals in each symmetry:          50   24   40   18   50   24   40   18


  Symmetry  Ag ( 1)

    1     C3       1s         1 +    2 +    3 +    4
    2     C3       1s         5 +    6 +    7 +    8
    3     C3       1s         9 +   10 +   11 +   12
    4     C3       1s        13 +   14 +   15 +   16
    5     C3       2py       21 -   22 +   23 -   24
    6     C3       2pz       25 +   26 -   27 -   28
    7     C3       2py       33 -   34 +   35 -   36
    8     C3       2pz       37 +   38 -   39 -   40
    9     C3       2py       45 -   46 +   47 -   48
   10     C3       2pz       49 +   50 -   51 -   52
   11     C3       3d1-      57 -   58 -   59 +   60
   12     C3       3d0       61 +   62 +   63 +   64
   13     C3       3d2+      69 +   70 +   71 +   72
   14     C3       3d1-      77 -   78 -   79 +   80
   15     C3       3d0       81 +   82 +   83 +   84
   16     C3       3d2+      89 +   90 +   91 +   92
   17     C3       4f3-      93 -   94 +   95 -   96
   18     C3       4f1-     101 -  102 +  103 -  104
   19     C3       4f0      105 +  106 -  107 -  108
   20     C3       4f2+     113 +  114 -  115 -  116
   21     C4       1s       121 +  122
   22     C4       1s       123 +  124
   23     C4       1s       125 +  126
   24     C4       1s       127 +  128
   25     C4       2pz      133 -  134
   26     C4       2pz      139 -  140
   27     C4       2pz      145 -  146
   28     C4       3d0      151 +  152
   29     C4       3d2+     155 +  156
   30     C4       3d0      161 +  162
   31     C4       3d2+     165 +  166
   32     C4       4f0      173 -  174
   33     C4       4f2+     177 -  178
   34     H9       1s       181 +  182 +  183 +  184
   35     H9       1s       185 +  186 +  187 +  188
   36     H9       1s       189 +  190 +  191 +  192
   37     H9       2py      197 -  198 +  199 -  200
   38     H9       2pz      201 +  202 -  203 -  204
   39     H9       2py      209 -  210 +  211 -  212
   40     H9       2pz      213 +  214 -  215 -  216
   41     H9       3d1-     221 -  222 -  223 +  224
   42     H9       3d0      225 +  226 +  227 +  228
   43     H9       3d2+     233 +  234 +  235 +  236
   44     H10      1s       237 +  238
   45     H10      1s       239 +  240
   46     H10      1s       241 +  242
   47     H10      2pz      247 -  248
   48     H10      2pz      253 -  254
   49     H10      3d0      259 +  260
   50     H10      3d2+     263 +  264


  Symmetry  B3u( 2)

   51     C3       2px       17 +   18 +   19 +   20
   52     C3       2px       29 +   30 +   31 +   32
   53     C3       2px       41 +   42 +   43 +   44
   54     C3       3d2-      53 -   54 +   55 -   56
   55     C3       3d1+      65 +   66 -   67 -   68
   56     C3       3d2-      73 -   74 +   75 -   76
   57     C3       3d1+      85 +   86 -   87 -   88
   58     C3       4f2-      97 -   98 -   99 +  100
   59     C3       4f1+     109 +  110 +  111 +  112
   60     C3       4f3+     117 +  118 +  119 +  120
   61     C4       2px      129 +  130
   62     C4       2px      135 +  136
   63     C4       2px      141 +  142
   64     C4       3d1+     153 -  154
   65     C4       3d1+     163 -  164
   66     C4       4f1+     175 +  176
   67     C4       4f3+     179 +  180
   68     H9       2px      193 +  194 +  195 +  196
   69     H9       2px      205 +  206 +  207 +  208
   70     H9       3d2-     217 -  218 +  219 -  220
   71     H9       3d1+     229 +  230 -  231 -  232
   72     H10      2px      243 +  244
   73     H10      2px      249 +  250
   74     H10      3d1+     261 -  262


  Symmetry  B2u( 3)

   75     C3       1s         1 -    2 +    3 -    4
   76     C3       1s         5 -    6 +    7 -    8
   77     C3       1s         9 -   10 +   11 -   12
   78     C3       1s        13 -   14 +   15 -   16
   79     C3       2py       21 +   22 +   23 +   24
   80     C3       2pz       25 -   26 -   27 +   28
   81     C3       2py       33 +   34 +   35 +   36
   82     C3       2pz       37 -   38 -   39 +   40
   83     C3       2py       45 +   46 +   47 +   48
   84     C3       2pz       49 -   50 -   51 +   52
   85     C3       3d1-      57 +   58 -   59 -   60
   86     C3       3d0       61 -   62 +   63 -   64
   87     C3       3d2+      69 -   70 +   71 -   72
   88     C3       3d1-      77 +   78 -   79 -   80
   89     C3       3d0       81 -   82 +   83 -   84
   90     C3       3d2+      89 -   90 +   91 -   92
   91     C3       4f3-      93 +   94 +   95 +   96
   92     C3       4f1-     101 +  102 +  103 +  104
   93     C3       4f0      105 -  106 -  107 +  108
   94     C3       4f2+     113 -  114 -  115 +  116
   95     C4       2py      131 +  132
   96     C4       2py      137 +  138
   97     C4       2py      143 +  144
   98     C4       3d1-     149 -  150
   99     C4       3d1-     159 -  160
  100     C4       4f3-     167 +  168
  101     C4       4f1-     171 +  172
  102     H9       1s       181 -  182 +  183 -  184
  103     H9       1s       185 -  186 +  187 -  188
  104     H9       1s       189 -  190 +  191 -  192
  105     H9       2py      197 +  198 +  199 +  200
  106     H9       2pz      201 -  202 -  203 +  204
  107     H9       2py      209 +  210 +  211 +  212
  108     H9       2pz      213 -  214 -  215 +  216
  109     H9       3d1-     221 +  222 -  223 -  224
  110     H9       3d0      225 -  226 +  227 -  228
  111     H9       3d2+     233 -  234 +  235 -  236
  112     H10      2py      245 +  246
  113     H10      2py      251 +  252
  114     H10      3d1-     257 -  258


  Symmetry  B1g( 4)

  115     C3       2px       17 -   18 +   19 -   20
  116     C3       2px       29 -   30 +   31 -   32
  117     C3       2px       41 -   42 +   43 -   44
  118     C3       3d2-      53 +   54 +   55 +   56
  119     C3       3d1+      65 -   66 -   67 +   68
  120     C3       3d2-      73 +   74 +   75 +   76
  121     C3       3d1+      85 -   86 -   87 +   88
  122     C3       4f2-      97 +   98 -   99 -  100
  123     C3       4f1+     109 -  110 +  111 -  112
  124     C3       4f3+     117 -  118 +  119 -  120
  125     C4       3d2-     147 +  148
  126     C4       3d2-     157 +  158
  127     C4       4f2-     169 -  170
  128     H9       2px      193 -  194 +  195 -  196
  129     H9       2px      205 -  206 +  207 -  208
  130     H9       3d2-     217 +  218 +  219 +  220
  131     H9       3d1+     229 -  230 -  231 +  232
  132     H10      3d2-     255 +  256


  Symmetry  B1u( 5)

  133     C3       1s         1 +    2 -    3 -    4
  134     C3       1s         5 +    6 -    7 -    8
  135     C3       1s         9 +   10 -   11 -   12
  136     C3       1s        13 +   14 -   15 -   16
  137     C3       2py       21 -   22 -   23 +   24
  138     C3       2pz       25 +   26 +   27 +   28
  139     C3       2py       33 -   34 -   35 +   36
  140     C3       2pz       37 +   38 +   39 +   40
  141     C3       2py       45 -   46 -   47 +   48
  142     C3       2pz       49 +   50 +   51 +   52
  143     C3       3d1-      57 -   58 +   59 -   60
  144     C3       3d0       61 +   62 -   63 -   64
  145     C3       3d2+      69 +   70 -   71 -   72
  146     C3       3d1-      77 -   78 +   79 -   80
  147     C3       3d0       81 +   82 -   83 -   84
  148     C3       3d2+      89 +   90 -   91 -   92
  149     C3       4f3-      93 -   94 -   95 +   96
  150     C3       4f1-     101 -  102 -  103 +  104
  151     C3       4f0      105 +  106 +  107 +  108
  152     C3       4f2+     113 +  114 +  115 +  116
  153     C4       1s       121 -  122
  154     C4       1s       123 -  124
  155     C4       1s       125 -  126
  156     C4       1s       127 -  128
  157     C4       2pz      133 +  134
  158     C4       2pz      139 +  140
  159     C4       2pz      145 +  146
  160     C4       3d0      151 -  152
  161     C4       3d2+     155 -  156
  162     C4       3d0      161 -  162
  163     C4       3d2+     165 -  166
  164     C4       4f0      173 +  174
  165     C4       4f2+     177 +  178
  166     H9       1s       181 +  182 -  183 -  184
  167     H9       1s       185 +  186 -  187 -  188
  168     H9       1s       189 +  190 -  191 -  192
  169     H9       2py      197 -  198 -  199 +  200
  170     H9       2pz      201 +  202 +  203 +  204
  171     H9       2py      209 -  210 -  211 +  212
  172     H9       2pz      213 +  214 +  215 +  216
  173     H9       3d1-     221 -  222 +  223 -  224
  174     H9       3d0      225 +  226 -  227 -  228
  175     H9       3d2+     233 +  234 -  235 -  236
  176     H10      1s       237 -  238
  177     H10      1s       239 -  240
  178     H10      1s       241 -  242
  179     H10      2pz      247 +  248
  180     H10      2pz      253 +  254
  181     H10      3d0      259 -  260
  182     H10      3d2+     263 -  264


  Symmetry  B2g( 6)

  183     C3       2px       17 +   18 -   19 -   20
  184     C3       2px       29 +   30 -   31 -   32
  185     C3       2px       41 +   42 -   43 -   44
  186     C3       3d2-      53 -   54 -   55 +   56
  187     C3       3d1+      65 +   66 +   67 +   68
  188     C3       3d2-      73 -   74 -   75 +   76
  189     C3       3d1+      85 +   86 +   87 +   88
  190     C3       4f2-      97 -   98 +   99 -  100
  191     C3       4f1+     109 +  110 -  111 -  112
  192     C3       4f3+     117 +  118 -  119 -  120
  193     C4       2px      129 -  130
  194     C4       2px      135 -  136
  195     C4       2px      141 -  142
  196     C4       3d1+     153 +  154
  197     C4       3d1+     163 +  164
  198     C4       4f1+     175 -  176
  199     C4       4f3+     179 -  180
  200     H9       2px      193 +  194 -  195 -  196
  201     H9       2px      205 +  206 -  207 -  208
  202     H9       3d2-     217 -  218 -  219 +  220
  203     H9       3d1+     229 +  230 +  231 +  232
  204     H10      2px      243 -  244
  205     H10      2px      249 -  250
  206     H10      3d1+     261 +  262


  Symmetry  B3g( 7)

  207     C3       1s         1 -    2 -    3 +    4
  208     C3       1s         5 -    6 -    7 +    8
  209     C3       1s         9 -   10 -   11 +   12
  210     C3       1s        13 -   14 -   15 +   16
  211     C3       2py       21 +   22 -   23 -   24
  212     C3       2pz       25 -   26 +   27 -   28
  213     C3       2py       33 +   34 -   35 -   36
  214     C3       2pz       37 -   38 +   39 -   40
  215     C3       2py       45 +   46 -   47 -   48
  216     C3       2pz       49 -   50 +   51 -   52
  217     C3       3d1-      57 +   58 +   59 +   60
  218     C3       3d0       61 -   62 -   63 +   64
  219     C3       3d2+      69 -   70 -   71 +   72
  220     C3       3d1-      77 +   78 +   79 +   80
  221     C3       3d0       81 -   82 -   83 +   84
  222     C3       3d2+      89 -   90 -   91 +   92
  223     C3       4f3-      93 +   94 -   95 -   96
  224     C3       4f1-     101 +  102 -  103 -  104
  225     C3       4f0      105 -  106 +  107 -  108
  226     C3       4f2+     113 -  114 +  115 -  116
  227     C4       2py      131 -  132
  228     C4       2py      137 -  138
  229     C4       2py      143 -  144
  230     C4       3d1-     149 +  150
  231     C4       3d1-     159 +  160
  232     C4       4f3-     167 -  168
  233     C4       4f1-     171 -  172
  234     H9       1s       181 -  182 -  183 +  184
  235     H9       1s       185 -  186 -  187 +  188
  236     H9       1s       189 -  190 -  191 +  192
  237     H9       2py      197 +  198 -  199 -  200
  238     H9       2pz      201 -  202 +  203 -  204
  239     H9       2py      209 +  210 -  211 -  212
  240     H9       2pz      213 -  214 +  215 -  216
  241     H9       3d1-     221 +  222 +  223 +  224
  242     H9       3d0      225 -  226 -  227 +  228
  243     H9       3d2+     233 -  234 -  235 +  236
  244     H10      2py      245 -  246
  245     H10      2py      251 -  252
  246     H10      3d1-     257 +  258


  Symmetry  Au ( 8)

  247     C3       2px       17 -   18 -   19 +   20
  248     C3       2px       29 -   30 -   31 +   32
  249     C3       2px       41 -   42 -   43 +   44
  250     C3       3d2-      53 +   54 -   55 -   56
  251     C3       3d1+      65 -   66 +   67 -   68
  252     C3       3d2-      73 +   74 -   75 -   76
  253     C3       3d1+      85 -   86 +   87 -   88
  254     C3       4f2-      97 +   98 +   99 +  100
  255     C3       4f1+     109 -  110 -  111 +  112
  256     C3       4f3+     117 -  118 -  119 +  120
  257     C4       3d2-     147 -  148
  258     C4       3d2-     157 -  158
  259     C4       4f2-     169 +  170
  260     H9       2px      193 -  194 -  195 +  196
  261     H9       2px      205 -  206 -  207 +  208
  262     H9       3d2-     217 +  218 -  219 -  220
  263     H9       3d1+     229 -  230 +  231 -  232
  264     H10      3d2-     255 -  256

  Symmetries of electric field:  B3u(2)  B2u(3)  B1u(5)

  Symmetries of magnetic field:  B3g(7)  B2g(6)  B1g(4)


                     .---------------------------------------.
                     | Starting in Integral Section (HERMIT) |
                     `---------------------------------------'



 ***************************************************************************************
 ****************** Output from **INTEGRALS input processing (HERMIT) ******************
 ***************************************************************************************


 - Using defaults, no **INTEGRALS input found

 Default print level:        1

 Calculation of one- and two-electron Hamiltonian integrals.

 Center of mass  (bohr):      0.000000000000      0.000000000000      0.000000000000
 Operator center (bohr):      0.000000000000      0.000000000000      0.000000000000
 Gauge origin    (bohr):      0.000000000000      0.000000000000      0.000000000000
 Dipole origin   (bohr):      0.000000000000      0.000000000000      0.000000000000

Calculation of 2-electron integrals are postponed until they are needed.


     ************************************************************************
     ************************** Output from HERINT **************************
     ************************************************************************



                      Nuclear contribution to dipole moments
                      --------------------------------------

                    All dipole components are zero by symmetry


  Total CPU  time used in HERMIT:   0.17 seconds
  Total wall time used in HERMIT:   0.17 seconds


                        .----------------------------------.
                        | End of Integral Section (HERMIT) |
                        `----------------------------------'



                   .--------------------------------------------.
                   | Starting in Wave Function Section (SIRIUS) |
                   `--------------------------------------------'


 *** Output from Huckel module :

     Using EWMO model:          F
     Using EHT  model:          T
     Number of Huckel orbitals each symmetry:    9    2    6    1    9    2    6    1

 Huckel EHT eigenvalues for symmetry :  1
          -11.416097     -11.377840      -1.574308      -0.876469      -0.788623
           -0.414601      -0.215690      -0.210347      -0.177160

 Huckel EHT eigenvalues for symmetry :  2
           -0.707438      -0.288538

 Huckel EHT eigenvalues for symmetry :  3
          -11.396286      -1.219381      -0.531610      -0.491547      -0.202983
           -0.166516

 Huckel EHT eigenvalues for symmetry :  4
           -0.459582

 Huckel EHT eigenvalues for symmetry :  5
          -11.396314     -11.362970      -1.219349      -0.625291      -0.531662
           -0.235904      -0.202888      -0.166403      -0.160376

 Huckel EHT eigenvalues for symmetry :  6
           -0.459525      -0.237890

 Huckel EHT eigenvalues for symmetry :  7
          -11.377815      -0.876184      -0.414506      -0.215702      -0.177187
           -0.163788

 Huckel EHT eigenvalues for symmetry :  8
           -0.288427

 **********************************************************************
 *SIRIUS* a direct, restricted step, second order MCSCF program       *
 **********************************************************************

 
     Date and time (Linux)  : Thu May  7 16:50:57 2026
     Host name              : debian                                  

 Title lines from ".mol" input file:
     Benzene C6H6 using the cc-pVTZ basis
     Using automatic symmetry detection

 Print level on unit LUPRI =   2 is   0
 Print level on unit LUW4  =   2 is   5

@    Restricted, closed shell Kohn-Sham DFT calculation.

 Initial molecular orbitals are obtained according to
 ".MOSTART EHT   " input option

     Wave function specification
     ============================
@    Wave function type        --- KS-DFT ---
@    Number of closed shell electrons          42
@    Number of electrons in active shells       0
@    Total charge of the molecule               0

@    Spin multiplicity and 2 M_S                1         0
@    Total number of symmetries                 8 (point group: D2h)
@    Reference state symmetry                   1 (irrep name : Ag )
 
     This is a DFT calculation of type: B3LYP
 Weighted mixed functional:
               HF exchange:    0.20000
                       VWN:    0.19000
                       LYP:    0.81000
                     Becke:    0.72000
                    Slater:    0.80000

     Orbital specifications
     ======================
@    Abelian symmetry species          All |    1    2    3    4    5    6    7    8
@                                          |  Ag   B3u  B2u  B1g  B1u  B2g  B3g  Au 
                                       --- |  ---  ---  ---  ---  ---  ---  ---  ---
@    Total number of orbitals          264 |   50   24   40   18   50   24   40   18
@    Number of basis functions         264 |   50   24   40   18   50   24   40   18

      ** Automatic occupation of RKS orbitals **

      -- Initial occupation of symmetries is determined from extended Huckel guess.           
      -- Initial occupation of symmetries is :
@    Occupied SCF orbitals              21 |    6    1    4    1    5    1    3    0

     Maximum number of Fock   iterations      0
     Maximum number of DIIS   iterations     60
     Maximum number of QC-SCF iterations     60
     Threshold for SCF convergence     1.00D-05
 
     This is a DFT calculation of type: B3LYP
 Weighted mixed functional:
               HF exchange:    0.20000
                       VWN:    0.19000
                       LYP:    0.81000
                     Becke:    0.72000
                    Slater:    0.80000


 ***********************************************
 ***** DIIS acceleration of SCF iterations *****
 ***********************************************

 C1-DIIS algorithm; max error vectors =    8

 Automatic occupation of symmetries with  42 electrons.

 Iter     Total energy    Error norm  Delta(E)    SCF occupation
 -----------------------------------------------------------------------------

---> (Re)generating AOTWOINT


     ************************************************************************
     ************************** Output from HERINT **************************
     ************************************************************************


***  INFO  GETGAB: GABSO--- not found on AOGABINT. Regenerating.

 Threshold for neglecting two-electron integrals:  1.00D-12
 HERMIT - Number of two-electron integrals written:    77772713 ( 12.7% )
 HERMIT - Gigabytes written:                              1.159

  Total CPU  time used in TWOINT:  18.16 seconds
  Total wall time used in TWOINT:  18.20 seconds
  Time used in TWOINT     is      18.63 seconds
      K-S energy, electrons, error :    -27.223691296291  42.0000542869    5.43D-05
@  1  -231.256648708       4.50D+00  -2.31D+02     6   1   4   1   5   1   3   0
      Virial theorem: -V/T =      2.015798
@    MULPOP   C3  _1  0.16; C3  _2  0.16; C3  _3  0.16; C3  _4  0.16; C4  _1  0.16; C4  _2  0.16; H9  _1 -0.16; H9  _2 -0.16; H9  _3 -0.16; H9  _4 -0.16; 
@             H10 _1 -0.16; H10 _2 -0.16; 
   1  Level shift: doubly occupied orbital energies shifted by -2.00D-01
 -----------------------------------------------------------------------------
      K-S energy, electrons, error :    -28.483995226200  41.9999954075   -4.59D-06
@  2  -231.943034722       1.97D+00  -6.86D-01     6   1   4   1   5   1   3   0
      Virial theorem: -V/T =      1.988903
@    MULPOP   C3  _1 -0.24; C3  _2 -0.24; C3  _3 -0.24; C3  _4 -0.24; C4  _1 -0.23; C4  _2 -0.23; H9  _1  0.24; H9  _2  0.24; H9  _3  0.24; H9  _4  0.24; 
@             H10 _1  0.24; H10 _2  0.24; 
   2  Level shift: doubly occupied orbital energies shifted by -1.00D-01
 -----------------------------------------------------------------------------
      K-S energy, electrons, error :    -27.922743553603  42.0000087163    8.72D-06
@  3  -232.154340747       6.56D-01  -2.11D-01     6   1   4   1   5   1   3   0
      Virial theorem: -V/T =      2.010370
@    MULPOP   C3  _1 -0.05; C3  _2 -0.05; C3  _3 -0.05; C3  _4 -0.05; C4  _1 -0.06; C4  _2 -0.06; H9  _1  0.05; H9  _2  0.05; H9  _3  0.05; H9  _4  0.05; 
@             H10 _1  0.05; H10 _2  0.05; 
   3  Level shift: doubly occupied orbital energies shifted by -5.00D-02
 -----------------------------------------------------------------------------
      K-S energy, electrons, error :    -28.010210965139  42.0000049089    4.91D-06
@  4  -232.178673130       8.47D-02  -2.43D-02     6   1   4   1   5   1   3   0
      Virial theorem: -V/T =      2.006879
@    MULPOP   C3  _1 -0.10; C3  _2 -0.10; C3  _3 -0.10; C3  _4 -0.10; C4  _1 -0.10; C4  _2 -0.10; H9  _1  0.10; H9  _2  0.10; H9  _3  0.10; H9  _4  0.10; 
@             H10 _1  0.10; H10 _2  0.10; 
   4  Level shift: doubly occupied orbital energies shifted by -1.25D-02
 -----------------------------------------------------------------------------
      K-S energy, electrons, error :    -28.028366180529  42.0000048386    4.84D-06
@  5  -232.179059232       7.14D-03  -3.86D-04     6   1   4   1   5   1   3   0
      Virial theorem: -V/T =      2.006217
@    MULPOP   C3  _1 -0.10; C3  _2 -0.10; C3  _3 -0.10; C3  _4 -0.10; C4  _1 -0.10; C4  _2 -0.10; H9  _1  0.10; H9  _2  0.10; H9  _3  0.10; H9  _4  0.10; 
@             H10 _1  0.10; H10 _2  0.10; 
 -----------------------------------------------------------------------------
      K-S energy, electrons, error :    -28.027232299748  42.0000048371    4.84D-06
@  6  -232.179062417       9.01D-04  -3.19D-06     6   1   4   1   5   1   3   0
      Virial theorem: -V/T =      2.006267
@    MULPOP   C3  _1 -0.10; C3  _2 -0.10; C3  _3 -0.10; C3  _4 -0.10; C4  _1 -0.10; C4  _2 -0.10; H9  _1  0.10; H9  _2  0.10; H9  _3  0.10; H9  _4  0.10; 
@             H10 _1  0.10; H10 _2  0.10; 
 -----------------------------------------------------------------------------
      K-S energy, electrons, error :    -28.027232754213  42.0000048405    4.84D-06
@  7  -232.179062412       9.86D-04   4.99D-09     6   1   4   1   5   1   3   0
      Virial theorem: -V/T =      2.006267
@    MULPOP   C3  _1 -0.10; C3  _2 -0.10; C3  _3 -0.10; C3  _4 -0.10; C4  _1 -0.10; C4  _2 -0.10; H9  _1  0.10; H9  _2  0.10; H9  _3  0.10; H9  _4  0.10; 
@             H10 _1  0.10; H10 _2  0.10; 
 -----------------------------------------------------------------------------
      K-S energy, electrons, error :    -28.027229741506  42.0000048405    4.84D-06
@  8  -232.179062469       4.92D-05  -5.67D-08     6   1   4   1   5   1   3   0
      Virial theorem: -V/T =      2.006267
@    MULPOP   C3  _1 -0.10; C3  _2 -0.10; C3  _3 -0.10; C3  _4 -0.10; C4  _1 -0.10; C4  _2 -0.10; H9  _1  0.10; H9  _2  0.10; H9  _3  0.10; H9  _4  0.10; 
@             H10 _1  0.10; H10 _2  0.10; 
 -----------------------------------------------------------------------------
      K-S energy, electrons, error :    -28.027225356123  42.0000048408    4.84D-06
@  9  -232.179062469       4.40D-06  -1.53D-10     6   1   4   1   5   1   3   0

@ *** DIIS converged in   9 iterations !
@     Converged SCF energy, gradient:   -232.179062469084    4.40D-06
    - total time used in SIRFCK :             32.95 seconds


 *** SCF orbital energy analysis ***

 Only the 20 lowest virtual orbital energies printed in each symmetry.

 Number of electrons        :   42
 Closed shell orbitals      :    6    1    4    1    5    1    3    0

 Sym       Kohn-Sham orbital energies

1 Ag    -10.17492342   -10.17406830    -0.85459243    -0.60245391    -0.52433737
         -0.34439934     0.04222427     0.10465132     0.23486289     0.26385053
          0.35761691     0.40267807     0.48551659     0.50072710     0.55145155
          0.80223451     0.86418238     1.02240230     1.10294844     1.28798631
          1.38337251     1.47125577     1.48856257     1.93160887     2.06608163
          2.35631204

2 B3u    -0.36908022    -0.00880455     0.28155662     0.40785997     0.45018136
          0.76581892     0.92937916     1.00617594     1.37461209     1.97269773
          2.17995595     2.47658357     2.63667880     2.68616144     2.90681327
          3.05606028     3.12113956     3.30555444     3.79217243     3.84613411
          4.10329087

3 B2u   -10.17465269    -0.74570198    -0.44732391    -0.42154539     0.07351186
          0.26008537     0.26881196     0.36635472     0.43785741     0.57812531
          0.73190610     0.90073214     1.11194013     1.17203503     1.25661986
          1.26931661     1.40726623     1.99211378     2.14727942     2.16821870
          2.46017611     2.61295808     2.70100572     2.98678602

4 B1g    -0.25506843     0.32470352     0.65428360     0.67836339     1.09282181
          1.27338897     2.09491527     2.29380699     2.68776155     2.75324074
          2.90799748     3.13988778     3.39838464     3.60507632     3.77063707
          3.88656245     4.32392728     4.77421285

5 B1u   -10.17466587   -10.17379149    -0.74565131    -0.46000694    -0.42169723
          0.07358674     0.13028548     0.26894732     0.36656969     0.39169110
          0.43810009     0.55082252     0.57842399     0.73203080     0.75258395
          0.96378970     1.11174042     1.17207775     1.25634569     1.39039613
          1.40754284     1.67124485     1.97055451     1.99201650     2.16818629

6 B2g    -0.25496619     0.14776830     0.32474355     0.48344884     0.67826658
          1.02486600     1.09274912     1.27348356     1.52759377     2.09534265
          2.50368395     2.68766235     2.75323335     2.90776640     3.28735507
          3.39814509     3.58173176     3.77070946     3.88675067     4.19307104
          4.32465621

7 B3g   -10.17405165    -0.60213898    -0.34400638     0.10468265     0.23489081
          0.40282328     0.48553477     0.50033791     0.55156065     0.71381221
          0.86412030     1.02272903     1.26851761     1.28788424     1.38384496
          1.48828581     1.86153650     1.93192018     2.41799006     2.57344002
          2.83411443     2.96994484     3.06254594

8 Au     -0.00855799     0.40794530     0.76575563     1.00610024     1.37468516
          1.58609561     2.18008282     2.63679931     3.05635741     3.12150793
          3.30516500     3.31839534     3.77500977     3.84647735     4.10277503
          4.32823017     4.81768112     5.03073190

    E(LUMO) :    -0.00880455 au (symmetry 2)
  - E(HOMO) :    -0.25496619 au (symmetry 6)
  ------------------------------------------
    gap     :     0.24616164 au

 --- Writing SIRIFC interface file

--------------------------------------------------------------------------------


     .-----------------------------------------------.
     | DFT KT IPs [a.u. & eV] from Koopmans' theorem |
     `-----------------------------------------------'


     DFT KT symmetry 1 ( Ag ) in point group D2h -- 6 principal poles with pole strength 1

   ============  ============  ============  ============  ============
      10.174923     10.174068      0.854592      0.602454      0.524337
     276.873750    276.850481     23.254643     16.393605     14.267946
   ============  ============  ============  ============  ============

   ============
       0.344399
       9.371583
   ============

     DFT KT symmetry 2 ( B3u) in point group D2h -- 1 principal poles with pole strength 1

   ============
       0.369080
      10.043184
   ============

     DFT KT symmetry 3 ( B2u) in point group D2h -- 4 principal poles with pole strength 1

   ============  ============  ============  ============
      10.174653      0.745702      0.447324      0.421545
     276.866383     20.291583     12.172303     11.470834
   ============  ============  ============  ============

     DFT KT symmetry 4 ( B1g) in point group D2h -- 1 principal poles with pole strength 1

   ============
       0.255068
       6.940765
   ============

     DFT KT symmetry 5 ( B1u) in point group D2h -- 5 principal poles with pole strength 1

   ============  ============  ============  ============  ============
      10.174666     10.173791      0.745651      0.460007      0.421697
     276.866742    276.842949     20.290204     12.517426     11.474965
   ============  ============  ============  ============  ============

     DFT KT symmetry 6 ( B2g) in point group D2h -- 1 principal poles with pole strength 1

   ============
       0.254966
       6.937983
   ============

     DFT KT symmetry 7 ( B3g) in point group D2h -- 3 principal poles with pole strength 1

   ============  ============  ============
      10.174052      0.602139      0.344006
     276.850028     16.385035      9.360890
   ============  ============  ============

@ Summary of DFT KT ionization potentials [eV]:

@ Symmetry 1 (Ag ) :   276.874     276.850      23.255      16.394      14.268
@                        9.372

@ Symmetry 2 (B3u) :    10.043

@ Symmetry 3 (B2u) :   276.866      20.292      12.172      11.471

@ Symmetry 4 (B1g) :     6.941

@ Symmetry 5 (B1u) :   276.867     276.843      20.290      12.517      11.475

@ Symmetry 6 (B2g) :     6.938

@ Symmetry 7 (B3g) :   276.850      16.385       9.361

@ Symmetry 8 (Au ) :  No IPs in this symmetry

  === End of DFT KT output ===
--------------------------------------------------------------------------------


 CPU and wall time for SCF :      57.374      57.489


                       .-----------------------------------.
                       | --- Final results from SIRIUS --- |
                       `-----------------------------------'


@    Spin multiplicity:           1
@    Spatial symmetry:            1 ( irrep  Ag  in D2h )
@    Total charge of molecule:    0

@    Final DFT energy:           -232.179062469084                 
@    Nuclear repulsion:           204.076413078321
@    Electronic energy:          -436.255475547405

@    Final gradient norm:           0.000004402143

 
     Date and time (Linux)  : Thu May  7 16:51:54 2026
     Host name              : debian                                  

File label for MO orbitals:   7May26   FOCKDIIS

 (Only coefficients > 0.0100 are printed.)

 Molecular orbitals for symmetry species 1  (Ag )
 ------------------------------------------------

    Orbital         1        2        3        4        5        6        7
   1 C3  :1s     0.4040  -0.2936  -0.0189  -0.0067  -0.0021  -0.0004   0.0017
   2 C3  :1s     0.0055  -0.0067   0.3407   0.2018   0.0358  -0.0117  -0.1368
   4 C3  :1s     0.0010  -0.0005  -0.0783  -0.0102   0.0121   0.0057  -0.6142
   5 C3  :2py   -0.0010  -0.0010  -0.0876   0.1890   0.2744  -0.0289  -0.1374
   6 C3  :2pz   -0.0005   0.0009  -0.0508  -0.2243   0.1578   0.4114  -0.0793
   7 C3  :2py    0.0047   0.0027   0.0154  -0.0296  -0.0263   0.0066  -0.0294
   8 C3  :2pz    0.0026  -0.0028   0.0090   0.0336  -0.0151  -0.0493  -0.0172
   9 C3  :2py    0.0019   0.0006   0.0286  -0.0509  -0.0599   0.0088  -0.2089
  10 C3  :2pz    0.0011  -0.0019   0.0165   0.0597  -0.0344  -0.0650  -0.1205
  12 C3  :3d0    0.0000  -0.0000   0.0035   0.0057   0.0003  -0.0108  -0.0036
  15 C3  :3d0   -0.0006   0.0012   0.0020   0.0066   0.0026  -0.0127  -0.0033
  16 C3  :3d2+  -0.0010   0.0012  -0.0060  -0.0007   0.0013  -0.0068   0.0152
  21 C4  :1s     0.4140   0.5731  -0.0189   0.0134  -0.0021   0.0008   0.0017
  22 C4  :1s     0.0058   0.0132   0.3405  -0.4040   0.0356   0.0233  -0.1368
  24 C4  :1s     0.0010   0.0010  -0.0781   0.0203   0.0121  -0.0113  -0.6136
  25 C4  :2pz   -0.0011   0.0009  -0.1012  -0.1041   0.3167  -0.3608  -0.1580
  26 C4  :2pz    0.0053  -0.0021   0.0178   0.0178  -0.0303   0.0377  -0.0345
  27 C4  :2pz    0.0022   0.0008   0.0329   0.0288  -0.0691   0.0497  -0.2416
  28 C4  :3d0    0.0006   0.0008   0.0025  -0.0025  -0.0013  -0.0130   0.0076
  30 C4  :3d0    0.0020  -0.0011   0.0054   0.0003  -0.0050  -0.0200  -0.0160
  31 C4  :3d2+   0.0005  -0.0017  -0.0041   0.0093  -0.0031  -0.0127   0.0079
  34 H9  :1s     0.0003  -0.0000   0.0888   0.1482   0.2899   0.2198   0.0891
  35 H9  :1s    -0.0074   0.0014  -0.0325  -0.0321  -0.0610  -0.0378   0.0663
  36 H9  :1s    -0.0018   0.0007  -0.0338  -0.0469  -0.0832  -0.0359   0.8018
  39 H9  :2py    0.0031  -0.0004   0.0014   0.0004  -0.0012  -0.0030  -0.0460
  40 H9  :2pz    0.0018  -0.0012   0.0008  -0.0070  -0.0007   0.0050  -0.0265
  44 H10 :1s     0.0003   0.0000   0.0889  -0.2975   0.2900  -0.4393   0.0888
  45 H10 :1s    -0.0075  -0.0026  -0.0326   0.0645  -0.0611   0.0757   0.0671
  46 H10 :1s    -0.0018  -0.0013  -0.0338   0.0940  -0.0833   0.0719   0.8017
  48 H10 :2pz    0.0036   0.0017   0.0016   0.0063  -0.0013   0.0001  -0.0533

    Orbital         8        9       10       11       12       13       14
   1 C3  :1s    -0.0044  -0.0007   0.0318   0.0416  -0.0136   0.0020  -0.0194
   2 C3  :1s    -0.1372  -0.1131   0.1505   0.3668   0.1266  -0.0612   0.0290
   3 C3  :1s     0.0017   0.0153  -0.0061   0.0028  -0.0057  -0.0215   0.0151
   4 C3  :1s    -0.8216  -2.5094  -0.2651  -0.9925   0.2945   0.6761  -1.8468
   5 C3  :2py   -0.0350   0.0905  -0.0755  -0.0106  -0.2367  -0.2770   0.2138
   6 C3  :2pz   -0.1105   0.0843  -0.0432  -0.0071   0.2885  -0.0933   0.1229
   7 C3  :2py   -0.0167   0.1405  -0.1633  -0.2721   0.2038   0.3363  -0.1876
   8 C3  :2pz   -0.0062  -0.0884  -0.0951  -0.1576   0.0614   0.0409  -0.1085
   9 C3  :2py   -0.2887   1.9291   0.0757  -0.0959   0.1591   1.7805  -1.0910
  10 C3  :2pz   -0.6066  -0.4792   0.0420  -0.0520  -0.5919   1.2477  -0.6259
  11 C3  :3d1-  -0.0064  -0.0117  -0.0012  -0.0384  -0.0012   0.0097   0.0050
  12 C3  :3d0    0.0003  -0.0168   0.0019   0.0164  -0.0087  -0.0053  -0.0078
  13 C3  :3d2+  -0.0016  -0.0136  -0.0020   0.0162   0.0090  -0.0025   0.0077
  14 C3  :3d1-  -0.0142   0.0680   0.0174  -0.1354   0.2575   0.3195  -0.2532
  15 C3  :3d0   -0.0187   0.0018   0.0322   0.0619  -0.0296   0.0285   0.0723
  16 C3  :3d2+   0.0203   0.0832  -0.0761   0.0481  -0.0172  -0.1145   0.1664
  17 C3  :4f3-   0.0005  -0.0085   0.0069   0.0127  -0.0053  -0.0140   0.0159
  19 C3  :4f0   -0.0009   0.0056   0.0106   0.0118  -0.0041  -0.0024   0.0086
  20 C3  :4f2+   0.0046   0.0099   0.0133   0.0187  -0.0029  -0.0182   0.0187
  21 C4  :1s     0.0089   0.0012   0.0318   0.0414   0.0271  -0.0043  -0.0195
  22 C4  :1s     0.2751   0.2255   0.1506   0.3671  -0.2524   0.1226   0.0292
  23 C4  :1s    -0.0034  -0.0306  -0.0060   0.0028   0.0114   0.0429   0.0151
  24 C4  :1s     1.6466   5.0147  -0.2692  -1.0110  -0.5982  -1.3653  -1.8643
  25 C4  :2pz    0.1711  -0.2411  -0.0872  -0.0143   0.1232   0.5737   0.2454
  26 C4  :2pz    0.0351  -0.1543  -0.1923  -0.3166  -0.4181  -0.6266  -0.2177
  27 C4  :2pz    1.1077  -2.8682   0.0829  -0.0995   0.3123  -4.3374  -1.2528
  28 C4  :3d0    0.0076  -0.0044   0.0002  -0.0412   0.0111  -0.0193  -0.0002
  29 C4  :3d2+   0.0079   0.0053  -0.0030  -0.0171  -0.0215  -0.0121   0.0121
  30 C4  :3d0    0.0431   0.0068   0.0541  -0.1443  -0.4177  -0.6218  -0.3086
  31 C4  :3d2+  -0.0374  -0.1602  -0.0623  -0.0694  -0.2399  -0.0964  -0.0525
  32 C4  :4f0    0.0062   0.0101  -0.0181  -0.0256  -0.0159  -0.0433  -0.0260
  33 C4  :4f2+  -0.0013   0.0216  -0.0036  -0.0008   0.0038   0.0132   0.0038
  34 H9  :1s    -0.0229  -0.0028   0.2376  -0.2860  -0.1479   0.1607   0.0043
  35 H9  :1s     0.1244  -0.0323   0.3834   0.3486  -0.4992  -0.8863   0.9226
  36 H9  :1s     0.9385  -0.8802  -0.3300   0.7366   0.2426  -1.5480   1.2218
  37 H9  :2py    0.0089   0.0029  -0.0117  -0.0007   0.0116   0.0080  -0.0081
  38 H9  :2pz    0.0006  -0.0110  -0.0068  -0.0004   0.0000   0.0016  -0.0047
  39 H9  :2py   -0.0455   0.0163  -0.0444  -0.2745   0.0583   0.3410  -0.3105
  40 H9  :2pz   -0.0288  -0.0103  -0.0255  -0.1583   0.0892   0.1999  -0.1791
  41 H9  :3d1-   0.0017  -0.0019   0.0128   0.0214  -0.0083  -0.0173   0.0180
  43 H9  :3d2+  -0.0022   0.0010  -0.0112  -0.0202   0.0054   0.0164  -0.0165
  44 H10 :1s     0.0466   0.0042   0.2377  -0.2855   0.2948  -0.3219   0.0047
  45 H10 :1s    -0.2492   0.0632   0.3899   0.3543   1.0034   1.7779   0.9258
  46 H10 :1s    -1.8817   1.7667  -0.3242   0.7320  -0.4789   3.1057   1.2211
  47 H10 :2pz   -0.0160   0.0060  -0.0136  -0.0009  -0.0202  -0.0154  -0.0094
  48 H10 :2pz    0.1077  -0.0178  -0.0539  -0.3189  -0.1930  -0.7928  -0.3592
  49 H10 :3d0   -0.0055   0.0047   0.0173   0.0296   0.0196   0.0483   0.0245

    Orbital        15       16
   1 C3  :1s    -0.0148  -0.0290
   2 C3  :1s    -0.2135  -0.1545
   3 C3  :1s    -0.0890  -0.0415
   4 C3  :1s     6.1998   0.3157
   5 C3  :2py    0.2237   0.2530
   6 C3  :2pz   -0.0699   0.1463
   7 C3  :2py    0.0271   0.0438
   8 C3  :2pz    0.3601   0.0258
   9 C3  :2py   -2.1262  -0.0037
  10 C3  :2pz    1.2860  -0.0001
  11 C3  :3d1-  -0.0256   0.0084
  12 C3  :3d0   -0.0225  -0.0040
  13 C3  :3d2+  -0.0121  -0.0028
  14 C3  :3d1-   0.1066   0.1942
  15 C3  :3d0   -0.1378   0.0241
  16 C3  :3d2+  -0.5194  -0.2676
  17 C3  :4f3-   0.0155  -0.0059
  18 C3  :4f1-   0.0226   0.0015
  19 C3  :4f0   -0.0255   0.0080
  20 C3  :4f2+  -0.0495   0.0017
  21 C4  :1s     0.0292  -0.0290
  22 C4  :1s     0.4240  -0.1538
  23 C4  :1s     0.1781  -0.0414
  24 C4  :1s   -12.3919   0.3012
  25 C4  :2pz   -0.3185   0.2921
  26 C4  :2pz   -0.4084   0.0526
  27 C4  :2pz    2.4067   0.0051
  28 C4  :3d0    0.0171   0.0086
  30 C4  :3d0   -0.8702   0.3167
  31 C4  :3d2+   0.3789  -0.0979
  32 C4  :4f0   -0.0840  -0.0014
  33 C4  :4f2+  -0.0560  -0.0101
  34 H9  :1s    -0.0348  -0.0425
  35 H9  :1s    -1.2007  -0.5910
  36 H9  :1s     0.1673   0.1592
  37 H9  :2py    0.0151   0.0126
  39 H9  :2py    0.3300  -0.1396
  40 H9  :2pz    0.1628  -0.0812
  41 H9  :3d1-  -0.0131   0.0009
  43 H9  :3d2+   0.0199  -0.0029
  44 H10 :1s     0.0713  -0.0425
  45 H10 :1s     2.4029  -0.5930
  46 H10 :1s    -0.3412   0.1562
  47 H10 :2pz   -0.0324   0.0146
  48 H10 :2pz   -0.7333  -0.1612
  49 H10 :3d0    0.0473   0.0024

 Molecular orbitals for symmetry species 2  (B3u)
 ------------------------------------------------

    Orbital         1        2        3        4        5        6        7
   1 C3  :2px    0.3485  -0.2860   0.2518   0.2219   0.1043   0.0517  -0.1148
   2 C3  :2px   -0.0190   0.0199   0.1623   0.1122   0.0721   0.0457  -0.1342
   3 C3  :2px   -0.0365  -0.1414  -0.4047  -0.8024  -0.1072  -0.2397  -0.0832
   4 C3  :3d2-  -0.0051  -0.0103   0.0004  -0.0058   0.0022   0.0008   0.0049
   5 C3  :3d1+  -0.0030   0.0120   0.0002  -0.0005   0.0013   0.0145   0.0028
   6 C3  :3d2-  -0.0093  -0.0171  -0.0669   0.0947   0.2032  -0.1331  -0.2806
   7 C3  :3d1+  -0.0054   0.0219  -0.0386  -0.0723   0.1171   0.2424  -0.1620
   8 C3  :4f2-  -0.0009  -0.0011  -0.0013   0.0107  -0.0061  -0.0089  -0.0073
  11 C4  :2px    0.3483   0.5722   0.2520  -0.4435   0.1045  -0.1035  -0.1147
  12 C4  :2px   -0.0190  -0.0397   0.1623  -0.2246   0.0723  -0.0905  -0.1346
  13 C4  :2px   -0.0364   0.2831  -0.4050   1.6049  -0.1077   0.4794  -0.0822
  14 C4  :3d1+  -0.0059   0.0058   0.0004   0.0105   0.0025  -0.0159   0.0056
  15 C4  :3d1+  -0.0107   0.0078  -0.0772  -0.0917   0.2342  -0.0113  -0.3237
  16 C4  :4f1+   0.0019  -0.0003  -0.0015  -0.0022  -0.0039   0.0179  -0.0121
  17 C4  :4f3+  -0.0042  -0.0015  -0.0005  -0.0173  -0.0065   0.0111   0.0018
  18 H9  :2px    0.0024  -0.0036  -0.0020  -0.0014  -0.0099  -0.0129  -0.0374
  19 H9  :2px    0.0083  -0.0128   0.0131  -0.0228   0.1193   0.2655   0.6338
  20 H9  :3d2-  -0.0010   0.0011  -0.0026   0.0008   0.0056  -0.0095  -0.0184
  21 H9  :3d1+  -0.0006   0.0020  -0.0015   0.0045   0.0032   0.0024  -0.0106
  22 H10 :2px    0.0024   0.0072  -0.0020   0.0027  -0.0099   0.0258  -0.0374
  23 H10 :2px    0.0083   0.0257   0.0132   0.0459   0.1190  -0.5318   0.6334
  24 H10 :3d1+  -0.0011  -0.0038  -0.0030  -0.0058   0.0065   0.0142  -0.0213

    Orbital         8        9       10       11
   1 C3  :2px    0.1674   0.0460  -1.4360  -0.9882
   2 C3  :2px    0.1230  -0.0192   1.2840   0.9905
   3 C3  :2px    0.5388   0.0597   0.3282   0.1609
   4 C3  :3d2-   0.0049   0.0145   0.0064   0.0078
   5 C3  :3d1+  -0.0008  -0.0390   0.0037  -0.0317
   6 C3  :3d2-  -0.4364  -0.6354   0.0476  -0.0708
   7 C3  :3d1+   0.3922  -0.2472   0.0274   0.1132
   8 C3  :4f2-  -0.0028  -0.0308   0.0018   0.0571
   9 C3  :4f1+   0.0128   0.0134  -0.0357   0.0211
  10 C3  :4f3+  -0.0086   0.0119   0.0443   0.0688
  11 C4  :2px   -0.3351  -0.0908  -1.4367   1.9754
  12 C4  :2px   -0.2456   0.0394   1.2850  -1.9802
  13 C4  :2px   -1.0780  -0.1196   0.3284  -0.3217
  14 C4  :3d1+  -0.0077   0.0139   0.0074   0.0187
  15 C4  :3d1+   0.3649   1.3499   0.0559   0.0094
  16 C4  :4f1+  -0.0103   0.0581  -0.0331   0.0192
  17 C4  :4f3+   0.0290   0.0417   0.0461  -0.0897
  18 H9  :2px    0.0126  -0.0263   0.0018   0.0077
  19 H9  :2px   -0.2051   0.4655  -0.0732  -0.0510
  20 H9  :3d2-  -0.0061  -0.0201   0.0104  -0.0192
  21 H9  :3d1+   0.0081  -0.0019   0.0059   0.0493
  22 H10 :2px   -0.0252   0.0527   0.0018  -0.0152
  23 H10 :2px    0.4110  -0.9336  -0.0740   0.1021
  24 H10 :3d1+   0.0025   0.0369   0.0120  -0.0163

 Molecular orbitals for symmetry species 3  (B2u)
 ------------------------------------------------

    Orbital         1        2        3        4        5        6        7
   1 C3  :1s     0.5007  -0.0187   0.0000   0.0013  -0.0016  -0.0001  -0.0077
   2 C3  :1s     0.0128   0.4291  -0.0000  -0.0845  -0.1152  -0.0019  -0.1303
   4 C3  :1s    -0.0040  -0.0789   0.0001   0.0136  -1.3012  -0.0442  -2.6009
   5 C3  :2py    0.0008   0.0155  -0.2243   0.3309  -0.2154   0.0987   0.1946
   6 C3  :2pz   -0.0010  -0.0970   0.3908   0.2686  -0.1232  -0.1666  -0.0451
   7 C3  :2py   -0.0033  -0.0050   0.0264  -0.0392  -0.0770   0.0783   0.1227
   8 C3  :2pz    0.0024   0.0184  -0.0461  -0.0341  -0.0242  -0.1327   0.0103
   9 C3  :2py   -0.0003  -0.0044   0.0457  -0.0581  -0.4707  -0.3350   0.8487
  10 C3  :2pz    0.0006   0.0289  -0.0797  -0.0490  -0.5250   0.5863  -1.1735
  11 C3  :3d1-  -0.0000  -0.0013  -0.0042   0.0025   0.0020   0.0150  -0.0260
  12 C3  :3d0    0.0003   0.0069  -0.0063  -0.0069   0.0013   0.0231   0.0015
  13 C3  :3d2+  -0.0008  -0.0039  -0.0036  -0.0025   0.0012   0.0134   0.0016
  14 C3  :3d1-  -0.0005  -0.0025  -0.0025   0.0003  -0.0530  -0.0423   0.0192
  15 C3  :3d0   -0.0038   0.0045  -0.0037  -0.0079  -0.0060  -0.0642   0.0039
  16 C3  :3d2+  -0.0019  -0.0054  -0.0021  -0.0040   0.0331  -0.0361   0.0432
  21 C4  :2py    0.0025   0.1826   0.4501  -0.1377  -0.0019  -0.1868   0.2816
  22 C4  :2py   -0.0074  -0.0367  -0.0531   0.0202  -0.0350  -0.1508   0.1124
  23 C4  :2py   -0.0012  -0.0542  -0.0918   0.0275   0.4392   0.7463   2.8450
  24 C4  :3d1-   0.0002  -0.0057  -0.0084   0.0099  -0.0050   0.0311   0.0210
  25 C4  :3d1-   0.0078   0.0005  -0.0049   0.0150   0.0335  -0.0865  -0.0584
  26 C4  :4f3-   0.0006  -0.0007  -0.0039  -0.0009   0.0006  -0.0143  -0.0068
  28 H9  :1s     0.0004   0.1753   0.0010   0.3750  -0.0004  -0.0050  -0.3187
  29 H9  :1s    -0.0030  -0.0481  -0.0002  -0.0619   0.2261  -0.0008  -0.1026
  30 H9  :1s    -0.0007  -0.0610  -0.0002  -0.0861   1.3739   0.0010   0.0838
  31 H9  :2py    0.0004  -0.0031  -0.0019  -0.0064   0.0110  -0.0026   0.0091
  33 H9  :2py    0.0009  -0.0010  -0.0050  -0.0051  -0.1025  -0.0356  -0.0173
  34 H9  :2pz    0.0019  -0.0008   0.0086  -0.0032  -0.0482   0.0607  -0.0089
  38 H10 :2py    0.0000   0.0010   0.0037   0.0006   0.0010   0.0057   0.0157
  39 H10 :2py   -0.0024   0.0003   0.0100   0.0004  -0.0190   0.0702  -0.0053

    Orbital         8        9       10       11       12       13       14
   1 C3  :1s     0.0243  -0.0026   0.0051   0.0336   0.0000  -0.0030  -0.0584
   2 C3  :1s     0.1174   0.1789   0.2360   0.2919   0.0002   0.0668  -0.3080
   3 C3  :1s     0.0316   0.0071   0.0583   0.0328  -0.0001  -0.0273  -0.1042
   4 C3  :1s    -2.7733   0.2471  -8.1129   2.3897  -0.0058   5.5305   4.2212
   5 C3  :2py    0.1210   0.3402  -0.0903  -0.1000   0.0733  -0.0591  -0.1430
   6 C3  :2pz   -0.1527   0.1617   0.2893   0.1095  -0.1268   0.1918  -0.0139
   7 C3  :2py   -0.5833  -0.5368  -0.1954  -0.0252  -0.1586  -0.3838  -1.0982
   8 C3  :2pz   -0.3563  -0.0896  -0.3323  -0.3305   0.2749  -0.0801   0.3990
   9 C3  :2py    0.1298  -2.3024   1.2805   1.7291   0.4048  -1.1165  -2.4286
  10 C3  :2pz   -0.5105  -0.1528  -3.3435   2.4242  -0.6995   2.7880   0.4526
  11 C3  :3d1-  -0.0180  -0.0186   0.0099  -0.0086  -0.0018   0.0113   0.0093
  12 C3  :3d0    0.0131   0.0047  -0.0007   0.0154  -0.0029  -0.0227  -0.0042
  13 C3  :3d2+  -0.0037   0.0143   0.0139   0.0106  -0.0016   0.0131  -0.0189
  14 C3  :3d1-  -0.2992  -0.4089  -0.0145   0.1708   0.2240  -0.1357  -0.5325
  15 C3  :3d0    0.0994  -0.0139   0.0992   0.0356   0.3361   0.0203  -0.0955
  16 C3  :3d2+   0.1711   0.0830   0.3828   0.0784   0.1939   0.1195  -0.8582
  17 C3  :4f3-   0.0200   0.0296   0.0052  -0.0116  -0.0040   0.0215   0.0238
  18 C3  :4f1-  -0.0035  -0.0016  -0.0062   0.0117   0.0088   0.0103  -0.0074
  19 C3  :4f0    0.0317   0.0036   0.0346   0.0222  -0.0065   0.0202  -0.0366
  20 C3  :4f2+   0.0448   0.0159   0.0576   0.0209   0.0083   0.0109  -0.0467
  21 C4  :2py    0.3858   0.0597  -0.5910  -0.2896  -0.1467  -0.3913  -0.1205
  22 C4  :2py    0.0350  -0.3811   0.3802   0.5469   0.3170  -0.2462  -1.7853
  23 C4  :2py    1.0124  -2.0334   7.0669  -2.4686  -0.7991  -5.9390  -3.2068
  24 C4  :3d1-   0.0015  -0.0008  -0.0209  -0.0236  -0.0038   0.0113   0.0134
  25 C4  :3d1-   0.0030   0.3587  -0.4660  -0.2929   0.4471   0.0016   1.4245
  26 C4  :4f3-  -0.0080   0.0078  -0.0321  -0.0228   0.0136   0.0163   0.0492
  27 C4  :4f1-  -0.0012  -0.0140   0.0183  -0.0114   0.0044  -0.0358  -0.0103
  28 H9  :1s     0.0288  -0.2737  -0.0649  -0.2383   0.0002  -0.1236   0.0662
  29 H9  :1s     1.3650   0.8391   1.3580  -0.7606  -0.0003   0.0177   0.1947
  30 H9  :1s     0.2963   2.0981   0.4913  -1.0627  -0.0006   0.0245   1.0646
  31 H9  :2py   -0.0224  -0.0056  -0.0144   0.0036   0.0112  -0.0209   0.0273
  32 H9  :2pz   -0.0123   0.0004  -0.0130   0.0066  -0.0194   0.0137   0.0114
  33 H9  :2py   -0.4060  -0.4872  -0.4648  -0.1533  -0.1423   0.1098  -0.4957
  34 H9  :2pz   -0.2767  -0.2469  -0.2253  -0.0934   0.2463  -0.5351  -0.1528
  35 H9  :3d1-   0.0375   0.0264   0.0283   0.0128   0.0037   0.0265  -0.0068
  37 H9  :3d2+  -0.0328  -0.0246  -0.0261  -0.0093   0.0032  -0.0024  -0.0154
  38 H10 :2py   -0.0010  -0.0062   0.0081  -0.0078  -0.0224  -0.0445   0.0078
  39 H10 :2py    0.0733  -0.0593  -0.0744   0.0083   0.2843   1.0368  -0.2364
  40 H10 :3d1-  -0.0060   0.0040   0.0036  -0.0041   0.0073  -0.0248   0.0142

 Molecular orbitals for symmetry species 4  (B1g)
 ------------------------------------------------

    Orbital         1        2        3        4        5        6        7
   1 C3  :2px    0.4622  -0.3074   0.0002  -0.0915   0.0138   0.4370  -1.6557
   2 C3  :2px   -0.0280  -0.1935  -0.0001   0.0135  -0.0118   0.2743   1.6773
   3 C3  :2px   -0.0019   0.6993  -0.0009   0.3912   0.0380   0.1651   0.3369
   4 C3  :3d2-  -0.0002   0.0055   0.0067  -0.0082  -0.0049   0.0233   0.0394
   5 C3  :3d1+  -0.0068   0.0007  -0.0115  -0.0128  -0.0114   0.0027   0.0484
   6 C3  :3d2-   0.0024   0.0147   0.1564  -0.2472  -0.6990  -0.1380  -0.0005
   7 C3  :3d1+  -0.0126   0.0817  -0.2699  -0.0518  -0.0219   0.6148   0.1709
   8 C3  :4f2-  -0.0008  -0.0071  -0.0058  -0.0006  -0.0333  -0.0140   0.0526
   9 C3  :4f1+   0.0047   0.0031  -0.0079  -0.0023   0.0002   0.0136  -0.0749
  10 C3  :4f3+  -0.0009  -0.0051  -0.0061  -0.0090   0.0085  -0.0323   0.0605
  11 C4  :3d2-   0.0115   0.0042  -0.0134   0.0138   0.0148   0.0186  -0.0437
  12 C4  :3d2-   0.0242  -0.1267  -0.3120  -0.1601  -0.6601  -1.2025  -0.2968
  13 C4  :4f2-  -0.0046   0.0083  -0.0116   0.0133   0.0242   0.0296  -0.0149
  14 H9  :2px    0.0041   0.0006  -0.0001   0.0239  -0.0320   0.0323   0.0343
  15 H9  :2px    0.0134   0.0240   0.0012  -0.3809   0.6581  -0.4011  -0.1513
  16 H9  :3d2-  -0.0018   0.0014   0.0037   0.0032  -0.0232   0.0000  -0.0172
  17 H9  :3d1+  -0.0014  -0.0018  -0.0064   0.0008  -0.0084   0.0094   0.0201
  18 H10 :3d2-   0.0006   0.0045  -0.0073   0.0018  -0.0086  -0.0162  -0.0521

    Orbital         8        9       10       11
   1 C3  :2px   -0.0015   0.4262   0.3006  -0.1719
   2 C3  :2px    0.0016  -0.5551  -0.3888   0.2940
   3 C3  :2px    0.0003  -0.1805  -0.2093   0.2505
   4 C3  :3d2-   0.1267   0.1103   0.1195   0.3826
   5 C3  :3d1+  -0.2194   0.1917   0.1208   0.0668
   6 C3  :3d2-  -0.0636   0.0776  -0.2860  -0.6466
   7 C3  :3d1+   0.1106  -0.3105  -0.2426   0.0905
[...]
  13 C4  :4f2-   0.2250   0.0536   0.0717   0.3277
  14 H9  :2px    0.0001   0.1048  -0.0736   0.1414
  15 H9  :2px   -0.0002  -0.0561   0.4603   0.0998
  16 H9  :3d2-  -0.0327  -0.0096  -0.0305  -0.1152
  17 H9  :3d1+   0.0566  -0.0956  -0.0329  -0.0524
  18 H10 :3d2-   0.0652   0.1562   0.0266  -0.0243

 Molecular orbitals for symmetry species 5  (B1u)
 ------------------------------------------------

    Orbital         1        2        3        4        5        6        7
   1 C3  :1s     0.2838   0.4136  -0.0108  -0.0063   0.0007  -0.0009   0.0077
   2 C3  :1s     0.0072   0.0139   0.2476   0.2377  -0.0476  -0.0666   0.2095
   3 C3  :1s     0.0029   0.0025  -0.0000   0.0018   0.0004   0.0002   0.0295
   4 C3  :1s    -0.0027   0.0347  -0.0456   0.0396   0.0080  -0.7619  -4.5636
   5 C3  :2py   -0.0010   0.0001  -0.0967   0.1802   0.2705  -0.1232   0.0843
   6 C3  :2pz    0.0019   0.0001   0.1270   0.1048   0.0193  -0.0728   0.0488
   7 C3  :2py    0.0024  -0.0018   0.0183  -0.0214  -0.0343  -0.0241   0.0906
   8 C3  :2pz   -0.0060  -0.0012  -0.0262  -0.0125   0.0004  -0.0490   0.0526
   9 C3  :2py    0.0007  -0.0120   0.0288  -0.0439  -0.0494  -0.5225   3.0479
  10 C3  :2pz   -0.0008  -0.0070  -0.0377  -0.0255  -0.0012   0.1401   1.7572
  14 C3  :3d1-   0.0044  -0.0120  -0.0012   0.0086   0.0090  -0.0106   0.0928
  15 C3  :3d0    0.0045   0.0072   0.0030  -0.0028   0.0084   0.0252  -0.1002
  16 C3  :3d2+   0.0028   0.0016  -0.0029  -0.0053   0.0052   0.0359   0.0664
  19 C3  :4f0   -0.0003  -0.0019  -0.0022  -0.0010   0.0015   0.0014   0.0112
  21 C4  :1s     0.5834  -0.4025  -0.0216   0.0063   0.0015  -0.0019  -0.0077
  22 C4  :1s     0.0150  -0.0136   0.4954  -0.2369  -0.0985  -0.1333  -0.2096
  23 C4  :1s     0.0059  -0.0024  -0.0000  -0.0018   0.0007   0.0003  -0.0295
  24 C4  :1s    -0.0041  -0.0347  -0.0909  -0.0397   0.0155  -1.4993   4.5597
  25 C4  :2pz    0.0002  -0.0002  -0.0404  -0.2121   0.4850  -0.2860  -0.0969
  26 C4  :2pz   -0.0019   0.0021   0.0056   0.0253  -0.0588  -0.0918  -0.1049
  27 C4  :2pz   -0.0001   0.0139   0.0122   0.0515  -0.0862  -0.7783  -3.5199
  30 C4  :3d0    0.0013   0.0109   0.0014  -0.0103   0.0043  -0.0704  -0.0388
  31 C4  :3d2+   0.0011   0.0089  -0.0085  -0.0023   0.0031   0.0015  -0.1466
  33 C4  :4f2+  -0.0001  -0.0015   0.0044  -0.0005  -0.0040   0.0030   0.0126
  34 H9  :1s     0.0003  -0.0000   0.1012   0.3655   0.2184  -0.0003  -0.0154
  35 H9  :1s    -0.0019   0.0058  -0.0277  -0.0736  -0.0362   0.1303  -0.1503
  36 H9  :1s    -0.0004   0.0014  -0.0352  -0.0915  -0.0502   0.7922  -2.2137
  39 H9  :2py    0.0019  -0.0008  -0.0008  -0.0025  -0.0032  -0.0482   0.0102
  40 H9  :2pz   -0.0013  -0.0005  -0.0001  -0.0014  -0.0014  -0.0469   0.0058
  44 H10 :1s     0.0005   0.0000   0.2028  -0.3688   0.4314  -0.0009   0.0149
  45 H10 :1s    -0.0034  -0.0058  -0.0557   0.0742  -0.0712   0.2628   0.1506
  46 H10 :1s    -0.0008  -0.0014  -0.0705   0.0924  -0.0992   1.5900   2.2166
  47 H10 :2pz    0.0005  -0.0008  -0.0045   0.0073  -0.0087   0.0143   0.0089
  48 H10 :2pz    0.0020   0.0010  -0.0015   0.0029  -0.0069  -0.1308  -0.0117

    Orbital         8        9       10       11       12       13       14
   1 C3  :1s    -0.0045  -0.0138   0.0171   0.0015  -0.0027   0.0028   0.0191
   2 C3  :1s    -0.0752  -0.0688  -0.2847  -0.1031  -0.0986   0.1353   0.1653
   3 C3  :1s     0.0013  -0.0179   0.0562  -0.0042   0.0327   0.0335   0.0177
   4 C3  :1s    -1.5058   1.5342 -13.5287  -0.1250   4.1673  -4.6824   1.4619
   5 C3  :2py   -0.0469   0.1522  -0.0554  -0.1620   0.2789   0.2900   0.1130
   6 C3  :2pz    0.2500  -0.2978  -0.0302  -0.1533   0.1622  -0.4237  -0.2253
   7 C3  :2py    0.0084   0.3570   0.2080   0.0889  -0.3021  -0.3318  -0.3295
   8 C3  :2pz    0.1152   0.1707   0.1212   0.4333  -0.1756   0.1894   0.3576
   9 C3  :2py   -1.1649   0.5505   6.9738   0.1464  -4.9847  -3.3594   2.4098
  10 C3  :2pz    2.1907  -0.7074   4.0297   2.1185  -2.8904   5.1423  -1.0849
  11 C3  :3d1-  -0.0025   0.0096   0.0074   0.0112   0.0044  -0.0064  -0.0187
  12 C3  :3d0    0.0196  -0.0089   0.0045  -0.0020   0.0044  -0.0185  -0.0116
  13 C3  :3d2+   0.0118   0.0012  -0.0164  -0.0079  -0.0127  -0.0024  -0.0057
  14 C3  :3d1-  -0.0241   0.1675   0.1495   0.0259  -0.7799  -0.2752  -0.0666
  15 C3  :3d0   -0.0502  -0.0588  -0.1909  -0.3014   0.3447  -0.3468  -0.2325
  16 C3  :3d2+  -0.0052  -0.0975   0.1576  -0.2270   0.3068  -0.0125  -0.1060
  17 C3  :4f3-   0.0019  -0.0149  -0.0132  -0.0075   0.0180   0.0257  -0.0008
  18 C3  :4f1-  -0.0010   0.0067   0.0034   0.0123  -0.0046   0.0019  -0.0148
  19 C3  :4f0    0.0051  -0.0229   0.0215   0.0046   0.0028   0.0418   0.0242
  20 C3  :4f2+  -0.0035  -0.0199   0.0066  -0.0180   0.0158   0.0051  -0.0035
  21 C4  :1s    -0.0089  -0.0279  -0.0169   0.0031   0.0029   0.0058   0.0389
  22 C4  :1s    -0.1503  -0.1336   0.2856  -0.2061   0.0988   0.2723   0.3397
  23 C4  :1s     0.0025  -0.0368  -0.0560  -0.0079  -0.0328   0.0672   0.0388
  24 C4  :1s    -3.0049   3.2937  13.4905  -0.3017  -4.1300  -9.3989   2.6969
  25 C4  :2pz    0.1685  -0.0333   0.0630  -0.4334  -0.3228   0.0753  -0.0405
  26 C4  :2pz    0.1302   0.7912  -0.2466   0.5908   0.3516  -0.3884  -0.2155
  27 C4  :2pz    0.1774   0.1240  -8.0583   2.4048   5.7670  -0.6310   3.1429
  28 C4  :3d0   -0.0239   0.0147  -0.0158   0.0275  -0.0110  -0.0019  -0.0176
  29 C4  :3d2+  -0.0130   0.0215   0.0098   0.0025   0.0089   0.0156  -0.0079
  30 C4  :3d0   -0.0154   0.4067  -0.0360   0.4164   0.8278  -0.3161   0.0783
  31 C4  :3d2+   0.0383   0.1011  -0.2875   0.1355   0.3684   0.1940   0.1169
  32 C4  :4f0   -0.0015   0.0660   0.0065   0.0328   0.0226  -0.0697  -0.0204
  33 C4  :4f2+  -0.0042   0.0139   0.0253  -0.0189  -0.0096  -0.0280  -0.0316
  34 H9  :1s    -0.1845  -0.0143   0.3055   0.1580   0.0617  -0.0372  -0.1375
  35 H9  :1s    -0.0596  -0.7832  -0.0883  -0.4814   1.8735   0.7839  -0.4538
  36 H9  :1s     0.0487  -0.1871  -3.1558  -1.2091   2.3083   0.2896  -0.6111
  37 H9  :2py   -0.0039   0.0123   0.0018  -0.0004  -0.0204  -0.0130   0.0067
  38 H9  :2pz    0.0136   0.0081   0.0010   0.0059  -0.0118   0.0006  -0.0039
  39 H9  :2py   -0.0078   0.2755   0.0545   0.2465  -0.3975  -0.2248  -0.0903
  40 H9  :2pz   -0.0088   0.0856   0.0317   0.2015  -0.2288  -0.2042  -0.0441
  41 H9  :3d1-  -0.0026  -0.0182  -0.0071  -0.0175   0.0193   0.0183   0.0048
  43 H9  :3d2+   0.0009   0.0220   0.0005   0.0122  -0.0122  -0.0133  -0.0073
  44 H10 :1s    -0.3680  -0.0344  -0.3055   0.3155  -0.0625  -0.0738  -0.2749
  45 H10 :1s    -0.1211  -1.5843   0.1003  -0.9732  -1.8799   1.5709  -0.8661
  46 H10 :1s     0.0920  -0.3294   3.1623  -2.4282  -2.3140   0.5624  -1.2301
  47 H10 :2pz    0.0068   0.0296  -0.0023   0.0054   0.0237  -0.0220   0.0073
  48 H10 :2pz   -0.0213   0.5688  -0.0670   0.6309   0.4596  -0.5957  -0.2104
  49 H10 :3d0   -0.0051  -0.0575   0.0066  -0.0422  -0.0231   0.0449   0.0182

    Orbital        15
   1 C3  :1s    -0.0326
   2 C3  :1s    -0.4465
   3 C3  :1s    -0.1545
   4 C3  :1s    10.1955
   5 C3  :2py    0.4883
   6 C3  :2pz    0.2835
   7 C3  :2py    0.0418
   8 C3  :2pz    0.0192
   9 C3  :2py   -2.4353
  10 C3  :2pz   -1.3929
  11 C3  :3d1-  -0.0155
  12 C3  :3d0    0.0154
  14 C3  :3d1-   0.4631
  15 C3  :3d0    0.0705
  16 C3  :3d2+  -0.6531
  19 C3  :4f0   -0.0569
  20 C3  :4f2+  -0.0423
  21 C4  :1s     0.0321
  22 C4  :1s     0.4421
  23 C4  :1s     0.1540
  24 C4  :1s   -10.2094
  25 C4  :2pz   -0.5650
  26 C4  :2pz   -0.0448
  27 C4  :2pz    2.7779
  29 C4  :3d2+   0.0219
  30 C4  :3d0   -0.7646
  31 C4  :3d2+   0.2519
  32 C4  :4f0   -0.0542
  33 C4  :4f2+  -0.0449
  34 H9  :1s    -0.0179
  35 H9  :1s    -1.7326
  36 H9  :1s     0.4275
  37 H9  :2py    0.0177
  38 H9  :2pz    0.0103
  39 H9  :2py    0.3168
  40 H9  :2pz    0.1827
  41 H9  :3d1-  -0.0133
  43 H9  :3d2+   0.0142
  44 H10 :1s     0.0209
  45 H10 :1s     1.7430
  46 H10 :1s    -0.4180
  47 H10 :2pz   -0.0206
  48 H10 :2pz   -0.3626
  49 H10 :3d0    0.0189

 Molecular orbitals for symmetry species 6  (B2g)
 ------------------------------------------------

    Orbital         1        2        3        4        5        6        7
   1 C3  :2px    0.2667   0.4454  -0.1773   0.3617  -0.0530  -0.1491   0.0079
   2 C3  :2px   -0.0162  -0.0260  -0.1115   0.1475   0.0080  -0.0141  -0.0064
   3 C3  :2px   -0.0011   0.5546   0.4032  -1.9409   0.2262  -1.7216   0.0239
   4 C3  :3d2-  -0.0068   0.0098   0.0007  -0.0121  -0.0127   0.0035  -0.0114
   6 C3  :3d2-  -0.0126  -0.0017   0.0819   0.1729  -0.0512   0.0875  -0.0230
   7 C3  :3d1+   0.0169  -0.0009  -0.0799   0.0999  -0.1889   0.0502  -0.6735
   8 C3  :4f2-  -0.0031   0.0023   0.0007   0.0060   0.0074  -0.0128  -0.0053
   9 C3  :4f1+  -0.0009  -0.0018   0.0084  -0.0094   0.0092  -0.0024   0.0193
  10 C3  :4f3+  -0.0034   0.0001   0.0021   0.0065   0.0030   0.0153   0.0197
  11 C4  :2px    0.5337  -0.4452  -0.3553  -0.3614  -0.1057   0.1492   0.0154
  12 C4  :2px   -0.0324   0.0261  -0.2234  -0.1476   0.0160   0.0143  -0.0143
  13 C4  :2px   -0.0021  -0.5545   0.8082   1.9397   0.4509   1.7210   0.0418
  14 C4  :3d1+  -0.0042  -0.0113   0.0059   0.0139  -0.0156  -0.0041  -0.0115
  15 C4  :3d1+  -0.0049   0.0019   0.0618  -0.2000  -0.2773  -0.1018  -0.7123
  16 C4  :4f1+   0.0005  -0.0014  -0.0011   0.0012   0.0069   0.0201  -0.0335
  17 C4  :4f3+  -0.0049  -0.0026  -0.0096  -0.0128  -0.0030  -0.0016  -0.0162
  18 H9  :2px    0.0023   0.0067   0.0004  -0.0018   0.0138  -0.0278  -0.0185
  19 H9  :2px    0.0077   0.0335   0.0138  -0.0726  -0.2200   0.6071   0.3798
  21 H9  :3d1+  -0.0002  -0.0019   0.0034   0.0043   0.0023  -0.0050  -0.0135
  22 H10 :2px    0.0047  -0.0067   0.0008   0.0018   0.0275   0.0278  -0.0370
  23 H10 :2px    0.0155  -0.0336   0.0274   0.0728  -0.4395  -0.6067   0.7615
  24 H10 :3d1+  -0.0025   0.0038   0.0003  -0.0086   0.0037   0.0100  -0.0282

    Orbital         8        9       10       11
   1 C3  :2px   -0.2530   0.4961  -0.9554  -1.2393
   2 C3  :2px   -0.1590  -0.0664   0.9684   1.4269
   3 C3  :2px   -0.0960   0.2679   0.1946  -0.1362
   4 C3  :3d2-  -0.0027   0.0160   0.0483  -0.0736
   5 C3  :3d1+  -0.0201   0.0092  -0.0162  -0.0425
   6 C3  :3d2-  -0.6143  -1.1709   0.1714  -0.3653
   7 C3  :3d1+   0.8498  -0.6745  -0.1987  -0.2105
   8 C3  :4f2-  -0.0090  -0.0422   0.0220   0.0016
   9 C3  :4f1+  -0.0314   0.0279  -0.0548  -0.0939
  10 C3  :4f3+   0.0005   0.0038   0.0259   0.1199
  11 C4  :2px   -0.5054  -0.4965  -1.9120   1.2384
  12 C4  :2px   -0.3168   0.0676   1.9377  -1.4256
  13 C4  :2px   -0.1904  -0.2679   0.3893   0.1363
  14 C4  :3d1+  -0.0249  -0.0185   0.0675   0.0854
  15 C4  :3d1+  -0.2158   1.3528   0.0982   0.4219
  16 C4  :4f1+  -0.0171   0.0301  -0.0145   0.0921
  17 C4  :4f3+   0.0363   0.0410   0.1256  -0.1213
  18 H9  :2px   -0.0186  -0.0414   0.0199  -0.0279
  19 H9  :2px    0.2312   0.7077  -0.0876   0.2271
  20 H9  :3d2-  -0.0093  -0.0298   0.0201   0.0393
  21 H9  :3d1+   0.0108  -0.0172  -0.0405   0.0227
  22 H10 :2px   -0.0373   0.0414   0.0396   0.0281
  23 H10 :2px    0.4633  -0.7094  -0.1754  -0.2279
  24 H10 :3d1+  -0.0055   0.0345  -0.0055  -0.0455

 Molecular orbitals for symmetry species 7  (B3g)
 ------------------------------------------------

    Orbital         1        2        3        4        5        6        7
   1 C3  :1s     0.5005  -0.0116  -0.0007  -0.0076  -0.0012  -0.0237  -0.0033
   2 C3  :1s     0.0115   0.3497  -0.0202  -0.2380  -0.1955   0.2186   0.1063
   3 C3  :1s     0.0040   0.0001   0.0012   0.0031   0.0264  -0.0099   0.0374
   4 C3  :1s     0.0009  -0.0175   0.0098  -1.4272  -4.3465   0.5148  -1.1706
   5 C3  :2py    0.0003  -0.0053   0.3775  -0.1509   0.1892   0.0144   0.4146
   6 C3  :2pz    0.0010   0.1894  -0.0293  -0.0351   0.0899  -0.2358   0.2766
   7 C3  :2py   -0.0004  -0.0007  -0.0415  -0.0253   0.0736   0.2974  -0.4294
   8 C3  :2pz   -0.0028  -0.0296   0.0067  -0.0166   0.1404   0.2036  -0.3372
   9 C3  :2py    0.0012   0.0007  -0.0547  -0.9399   1.7547  -0.4144  -3.2874
  10 C3  :2pz   -0.0006  -0.0510   0.0088  -0.2880   1.9277   0.1628  -1.8164
  11 C3  :3d1-   0.0002  -0.0019   0.0145  -0.0068   0.0079   0.0018  -0.0171
  12 C3  :3d0    0.0007  -0.0001  -0.0022   0.0068   0.0130  -0.0095   0.0087
  13 C3  :3d2+  -0.0010  -0.0054  -0.0002   0.0009   0.0007   0.0187   0.0042
  14 C3  :3d1-  -0.0007  -0.0051   0.0206  -0.0101   0.0356   0.3315  -0.4002
  15 C3  :3d0    0.0022   0.0032  -0.0051  -0.0110  -0.1205  -0.2228   0.1800
  16 C3  :3d2+   0.0003  -0.0061  -0.0020   0.0477   0.0727  -0.1291   0.3307
  17 C3  :4f3-  -0.0001   0.0006  -0.0018   0.0044  -0.0057  -0.0091   0.0277
  19 C3  :4f0   -0.0014  -0.0032   0.0018   0.0026   0.0199  -0.0025   0.0094
  20 C3  :4f2+  -0.0008  -0.0032   0.0020   0.0025   0.0042  -0.0112   0.0249
  21 C4  :2py    0.0014   0.3333  -0.4281   0.0904  -0.0321  -0.4260   0.0686
  22 C4  :2py   -0.0044  -0.0506   0.0530  -0.0029   0.1698   0.0559  -0.1512
  23 C4  :2py   -0.0022  -0.0890   0.0699   0.4417   1.5941   0.6761   0.2586
  24 C4  :3d1-   0.0004  -0.0067   0.0110   0.0042   0.0281   0.0037  -0.0002
  25 C4  :3d1-   0.0028  -0.0056   0.0113   0.0140  -0.0827  -0.1149   0.1515
  28 H9  :1s     0.0000   0.2572   0.3806  -0.0401  -0.0043  -0.2558  -0.2787
  29 H9  :1s    -0.0023  -0.0556  -0.0655   0.2153  -0.0555  -0.8645   1.5355
  30 H9  :1s    -0.0012  -0.0813  -0.0620   1.6271  -1.5282   0.4211   2.6846
  31 H9  :2py    0.0006  -0.0056  -0.0048   0.0109  -0.0077   0.0134  -0.0107
  32 H9  :2pz    0.0004  -0.0017  -0.0044   0.0089   0.0028   0.0116  -0.0080
  33 H9  :2py    0.0016  -0.0066   0.0016  -0.0813   0.0086   0.1569  -0.5943
  34 H9  :2pz    0.0003   0.0004  -0.0030  -0.0455   0.0163   0.0584  -0.3409
  35 H9  :3d1-  -0.0006   0.0004   0.0018   0.0034  -0.0045  -0.0123   0.0315
  37 H9  :3d2+   0.0006  -0.0015  -0.0001  -0.0035   0.0008   0.0111  -0.0271
  38 H10 :2py    0.0000   0.0026  -0.0029   0.0045   0.0127   0.0066  -0.0030
  39 H10 :2py   -0.0009   0.0073  -0.0067   0.0025   0.0197  -0.0555   0.0031

    Orbital         8        9       10       11       12       13
   1 C3  :1s     0.0000  -0.0256  -0.0000  -0.0436   0.0367   0.0001
   2 C3  :1s     0.0001  -0.3687  -0.0010  -0.2809   0.2937   0.0005
   3 C3  :1s     0.0004  -0.1545  -0.0004  -0.1237   0.0008  -0.0002
   4 C3  :1s    -0.0454  10.7410   0.0494   8.4984   3.5609  -0.0138
   5 C3  :2py   -0.1322   0.1892  -0.3267  -0.1128  -0.0548  -0.2202
   6 C3  :2pz    0.2341   0.2225   0.5678  -0.1113  -0.2466   0.3781
   7 C3  :2py   -0.1201   0.3907   0.1727   0.3589  -0.8621  -0.1748
   8 C3  :2pz    0.2023   0.0259  -0.2999  -0.2325  -0.7657   0.2949
   9 C3  :2py   -4.8100  -1.1772   5.0722  -6.6093  -0.1808  -6.3339
  10 C3  :2pz    8.3232  -2.1149  -8.8065  -3.8081  -1.3005  10.9678
  11 C3  :3d1-   0.0079  -0.0040   0.0099   0.0130   0.0061  -0.0023
  12 C3  :3d0    0.0120   0.0215   0.0150   0.0080  -0.0156  -0.0031
  13 C3  :3d2+   0.0069   0.0141   0.0086   0.0030   0.0172  -0.0019
  14 C3  :3d1-  -0.1185   0.5002   0.2552   0.0838  -0.8022  -0.0708
  15 C3  :3d0   -0.1723   0.2374   0.3824   0.2375   0.5585  -0.1067
  16 C3  :3d2+  -0.0975  -0.6263   0.2186  -0.3332   0.3520  -0.0662
  17 C3  :4f3-   0.0098  -0.0160  -0.0145   0.0084   0.0277   0.0210
  18 C3  :4f1-   0.0207  -0.0113  -0.0084  -0.0028  -0.0003   0.0402
  19 C3  :4f0    0.0046  -0.0748  -0.0129  -0.0573   0.0073   0.0105
  20 C3  :4f2+  -0.0056  -0.0461   0.0163  -0.0271   0.0346  -0.0142
  21 C4  :2py   -0.2675   0.1999  -0.6539  -0.0813  -0.3722  -0.4385
  22 C4  :2py   -0.2351  -0.3468   0.3439  -0.7581  -0.4683  -0.3462
  23 C4  :2py   -9.5950  -2.5260  10.1397  -0.0211  -2.0591 -12.6498
  24 C4  :3d1-  -0.0160   0.0404  -0.0198   0.0274  -0.0023   0.0040
  25 C4  :3d1-   0.2316   0.3177  -0.5077   0.1504   0.3437   0.1488
  26 C4  :4f3-   0.0024   0.0206  -0.0202   0.0140   0.0156   0.0088
  27 C4  :4f1-  -0.0239  -0.0363   0.0174  -0.0049   0.0093  -0.0481
  28 H9  :1s    -0.0012  -0.0607  -0.0000   0.2293  -0.1642   0.0014
  29 H9  :1s     0.0103  -2.0787  -0.0042   0.3338   1.5258  -0.0007
  30 H9  :1s     0.0087   0.2903   0.0009   2.3487   0.4710   0.0036
  31 H9  :2py   -0.0098   0.0236   0.0044  -0.0023  -0.0064  -0.0147
  32 H9  :2pz    0.0168   0.0151  -0.0076   0.0046  -0.0286   0.0259
  33 H9  :2py    0.0014   0.5433  -0.0609   0.4099  -0.7984   0.4269
  34 H9  :2pz   -0.0105   0.3292   0.1080   0.2318  -0.0280  -0.7466
  35 H9  :3d1-   0.0002  -0.0315  -0.0019  -0.0232   0.0391   0.0099
  36 H9  :3d0    0.0000  -0.0003  -0.0027   0.0027  -0.0153   0.0148
  37 H9  :3d2+  -0.0001   0.0269  -0.0015   0.0168  -0.0314   0.0084
  38 H10 :2py   -0.0195   0.0026   0.0088   0.0102  -0.0432  -0.0296
  39 H10 :2py    0.0100   0.0281  -0.1236  -0.0074   0.7481   0.8565
  40 H10 :3d1-  -0.0001  -0.0089   0.0036  -0.0048  -0.0109  -0.0198

 Molecular orbitals for symmetry species 8  (Au )
 ------------------------------------------------

    Orbital         1        2        3        4        5        6        7
   1 C3  :2px    0.4955   0.3843   0.0896  -0.2901  -0.0790   0.0014  -1.7112
   2 C3  :2px   -0.0344   0.1944   0.0788  -0.2129   0.0331   0.0007   1.7155
   3 C3  :2px    0.2457  -1.3907  -0.4147  -0.9346  -0.1037   0.0005   0.2790
   4 C3  :3d2-  -0.0001  -0.0072   0.0154  -0.0049   0.0222  -0.0133  -0.0230
   5 C3  :3d1+   0.0103  -0.0058   0.0008  -0.0049  -0.0145   0.0232   0.0077
   6 C3  :3d2-  -0.0021   0.0369   0.0882   0.1125   0.9818   0.8532   0.0321
   7 C3  :3d1+   0.0171   0.0950  -0.1330   0.4367   0.6359  -1.4797  -0.0724
   8 C3  :4f2-  -0.0018   0.0061  -0.0158   0.0081   0.0535   0.0262   0.0066
   9 C3  :4f1+  -0.0003  -0.0150   0.0059  -0.0178  -0.0232   0.0359  -0.0888
  10 C3  :4f3+  -0.0014   0.0018   0.0069   0.0183  -0.0207   0.0277   0.0217
  11 C4  :3d2-   0.0180  -0.0028  -0.0140  -0.0036  -0.0473  -0.0269   0.0364
  12 C4  :3d2-   0.0318   0.1266  -0.3197   0.6442   0.1183   1.7063  -0.1529
  13 C4  :4f2-  -0.0038  -0.0123  -0.0002   0.0033   0.0001  -0.0523  -0.0917
  14 H9  :2px    0.0062  -0.0024  -0.0223  -0.0219   0.0457   0.0000   0.0133
  15 H9  :2px    0.0222  -0.0396   0.4602   0.3558  -0.8069  -0.0002  -0.0883
  16 H9  :3d2-  -0.0032   0.0054  -0.0087  -0.0010   0.0251   0.0180   0.0272
  17 H9  :3d1+  -0.0011   0.0008  -0.0095   0.0061   0.0201  -0.0312  -0.0194
  18 H10 :3d2-   0.0014  -0.0040  -0.0078   0.0115   0.0096   0.0361  -0.0603

    Orbital         8        9       10
   1 C3  :2px   -0.0669   0.0192   0.3884
   2 C3  :2px   -0.0277  -0.1541  -0.7898
   3 C3  :2px   -0.3554   0.2189  -0.5780
   4 C3  :3d2-   0.1304   0.2020  -0.3451
   5 C3  :3d1+  -0.1715  -0.0031  -0.3000
   6 C3  :3d2-  -0.3047  -0.2493   0.8568
   7 C3  :3d1+   0.0428  -0.0178   0.7875
   8 C3  :4f2-   0.1433   0.2593   0.1235
   9 C3  :4f1+  -0.1583  -0.0610  -0.2610
  10 C3  :4f3+   0.2151  -0.2815  -0.1191
  11 C4  :3d2-  -0.4276  -0.2075  -0.1746
  12 C4  :3d2-   0.3759   0.2174   0.5046
  13 C4  :4f2-   0.1553  -0.1221  -0.3583
  14 H9  :2px   -0.0144   0.2529  -0.0861
  15 H9  :2px    0.2398  -0.2077  -0.3389
  16 H9  :3d2-  -0.0005  -0.0638   0.1168
  17 H9  :3d1+   0.0585  -0.0311   0.0471
  18 H10 :3d2-   0.1016   0.0096  -0.0352

  Total CPU  time used in SIRIUS :  57.46 seconds
  Total wall time used in SIRIUS :  57.57 seconds

 
     Date and time (Linux)  : Thu May  7 16:51:54 2026
     Host name              : debian                                  


                     .---------------------------------------.
                     | End of Wave Function Section (SIRIUS) |
                     `---------------------------------------'

  Total CPU  time used in DALTON:  57.64 seconds
  Total wall time used in DALTON:  57.76 seconds

 
     Date and time (Linux)  : Thu May  7 16:51:54 2026
     Host name              : debian                                  
