

     ************************************************************************
     *************** Dalton - An Electronic Structure Program ***************
     ************************************************************************

    This is output from DALTON release Dalton2025.0-dev (2025)
         ( Web site: http://daltonprogram.org )

   ----------------------------------------------------------------------------

    NOTE:
     
    Dalton is an experimental code for the evaluation of molecular
    properties using (MC)SCF, DFT, CI, and CC wave functions.
    The authors accept no responsibility for the performance of
    the code or for the correctness of the results.
     
    The code (in whole or part) is provided under a licence and
    is not to be reproduced for further distribution without
    the written permission of the authors or their representatives.
     
    See the home page "http://daltonprogram.org" for further information.
     
    If results obtained with this code are published,
    the appropriate citations would be both of:
     
       K. Aidas, C. Angeli, K. L. Bak, V. Bakken,
       R. Bast, L. Boman, O. Christiansen, R. Cimiraglia,
       S. Coriani, P. Dahle, E. K. Dalskov, U. Ekstroem,
       T. Enevoldsen, J. J. Eriksen, P. Ettenhuber, B. Fernandez,
       L. Ferrighi, H. Fliegl, L. Frediani, K. Hald, A. Halkier,
       C. Haettig, H. Heiberg, T. Helgaker, A. C. Hennum,
       H. Hettema, E. Hjertenaes, S. Hoest, I.-M. Hoeyvik,
       M. F. Iozzi, B. Jansik, H. J. Aa. Jensen, D. Jonsson,
       P. Joergensen, J. Kauczor, S. Kirpekar,
       T. Kjaergaard, W. Klopper, S. Knecht, R. Kobayashi, H. Koch,
       J. Kongsted, A. Krapp, K. Kristensen, A. Ligabue,
       O. B. Lutnaes, J. I. Melo, K. V. Mikkelsen, R. H. Myhre,
       C. Neiss, C. B. Nielsen, P. Norman, J. Olsen,
       J. M. H. Olsen, A. Osted, M. J. Packer, F. Pawlowski,
       T. B. Pedersen, P. F. Provasi, S. Reine, Z. Rinkevicius,
       T. A. Ruden, K. Ruud, V. Rybkin, P. Salek, C. C. M. Samson,
       A. Sanchez de Meras, T. Saue, S. P. A. Sauer,
       B. Schimmelpfennig, K. Sneskov, A. H. Steindal,
       K. O. Sylvester-Hvid, P. R. Taylor, A. M. Teale,
       E. I. Tellgren, D. P. Tew, A. J. Thorvaldsen, L. Thoegersen,
       O. Vahtras, M. A. Watson, D. J. D. Wilson, M. Ziolkowski
       and H. Agren,
       "The Dalton quantum chemistry program system",
       WIREs Comput. Mol. Sci. 2014, 4:269-284 (doi: 10.1002/wcms.1172)
     
    and
     
       Dalton, a molecular electronic structure program,
       Release Dalton2025.0-dev (2025), see http://daltonprogram.org
   ----------------------------------------------------------------------------

    Authors in alphabetical order (Major contribution(s) in parenthesis):

  Kestutis Aidas,              Vilnius University,        Lithuania   (QM/MM)
  Celestino Angeli,            University of Ferrara,     Italy       (NEVPT2)
  Juan J. Aucar,               Northeast National UniversiArgentina   (LRESC, Relativistic Effects on NMR Shieldings and EFG)
  Keld L. Bak,                 UNI-C,                     Denmark     (AOSOPPA, non-adiabatic coupling, magnetic properties)
  Vebjoern Bakken,             University of Oslo,        Norway      (DALTON; geometry optimizer, symmetry detection)
  Radovan Bast,                UiT The Arctic U. of NorwayNorway      (DALTON installation and execution frameworks)
  Pablo Baudin,                University of Valencia,    Spain       (Cholesky excitation energies)
  Linus Boman,                 NTNU,                      Norway      (Cholesky decomposition and subsystems)
  Bruno N. Cabral Tenorio,     Technical Univ. of Denmark,Denmark     (Lanczos-based CC methods)
  Ove Christiansen,            Aarhus University,         Denmark     (CC module)
  Renzo Cimiraglia,            University of Ferrara,     Italy       (NEVPT2)
  Sonia Coriani,               Technical Univ. of Denmark,Denmark     (CC and RESPONS modules)
  Janusz Cukras,               University of Warsaw,      Poland      (MChD in RESPONS)
  Paal Dahle,                  University of Oslo,        Norway      (Parallelization)
  Erik K. Dalskov,             UNI-C,                     Denmark     (SOPPA)
  Thomas Enevoldsen,           Univ. of Southern Denmark, Denmark     (SOPPA)
  Janus J. Eriksen,            Aarhus University,         Denmark     (Polarizable embedding, TDA)
  Rasmus Faber,                Technical Univ. of Denmark,Denmark     (Vib.avg. NMR w. SOPPA, parallel AO-SOPPA, CVS-CC and EOMCC)
  Tobias Fahleson,             KTH Stockholm,             Sweden      (Damped cubic response)
  Berta Fernandez,             U. of Santiago de CompostelSpain       (Doublet spin, ESR in RESPONS)
  Lara Ferrighi,               Aarhus University,         Denmark     (PCM Cubic response)
  Heike Fliegl,                University of Oslo,        Norway      (CCSD(R12))
  Luca Frediani,               UiT The Arctic U. of NorwayNorway      (PCM)
  Emmanuel Fromager,           Univ. Strasbourg,          France      (MC-srDFT)
  Bin Gao,                     UiT The Arctic U. of NorwayNorway      (Gen1Int library)
  Andre S. P. Gomes,           CNRS/Universite de Lille,  France      (Frozen density embedding)
  Christof Haettig,            Ruhr-University Bochum,    Germany     (CC module)
  Kasper Hald,                 Aarhus University,         Denmark     (CC module)
  Asger Halkier,               Aarhus University,         Denmark     (CC module)
  Frederik Beyer Hansen,       University of Copenhagen,  Denmark     (Parallel AO-SOPPA)
  Erik D. Hedegaard,           Univ. of Southern Denmark, Denmark     (Polarizable embedding, QM/MM, and MC-srDFT)
  Hanne Heiberg,               University of Oslo,        Norway      (Geometry analysis, selected one-electron integrals)
  Trygve Helgaker,             University of Oslo,        Norway      (DALTON; ABACUS, ERI, DFT modules, London, and much more)
  Alf Christian Hennum,        University of Oslo,        Norway      (Parity violation)
  Hinne Hettema,               University of Auckland,    New Zealand (Quadratic response in RESPONS; SIRIUS supersymmetry)
  Andreas E. Hillers-Bendtsen, University of Copenhagen,  Denmark     (MP3)
  Eirik Hjertenaes,            NTNU,                      Norway      (Cholesky decomposition)
  Nicolai Machholdt Hoeyer,    Aarhus University,         Denmark     (MP3)
  Pi A. B. Haase,              University of Copenhagen,  Denmark     (Triplet AO-SOPPA)
  Maria Francesca Iozzi,       University of Oslo,        Norway      (RPA)
  Christoph Jacob,             TU Braunschweig            Germany     (Frozen density embedding)
  Brano Jansik,                Technical Univ. of Ostrava Czech Rep.  (DFT cubic response)
  Hans Joergen Aa. Jensen,     Univ. of Southern Denmark, Denmark     (DALTON; SIRIUS, RESPONS, ABACUS, MC-srDFT, and much more)
  Dan Jonsson,                 UiT The Arctic U. of NorwayNorway      (Cubic response in RESPONS module)
  Poul Joergensen,             Aarhus University,         Denmark     (RESPONS, ABACUS, and CC modules)
  Maciej Kaminski,             University of Warsaw,      Poland      (CPPh in RESPONS)
  Joanna Kauczor,              Linkoeping University,     Sweden      (Complex polarization propagator (CPP) module)
  Sheela Kirpekar,             Univ. of Southern Denmark, Denmark     (Mass-velocity & Darwin integrals)
  Frederik Oersted Kjeldal,    Technical Univ. of Denmark,Denmark     (MP3)
  Erik Kjellgren,              Univ. of Southern Denmark, Denmark     (MC-srDFT)
  Wim Klopper,                 KIT Karlsruhe,             Germany     (R12 code in CC, SIRIUS, and ABACUS modules)
  Stefan Knecht,               ETH Zurich,                Switzerland (Parallel CI and MCSCF, MC-srDFT)
  Rika Kobayashi,              Australian National Univ., Australia   (DIIS in CC, London in MCSCF)
  Henrik Koch,                 NTNU,                      Norway      (CC module, Cholesky decomposition)
  Jacob Kongsted,              Univ. of Southern Denmark, Denmark     (Polarizable embedding, polarizable density embedding, QM/MM)
  Andrea Ligabue,              University of Modena,      Italy       (CTOCD, AOSOPPA)
  Nanna H. List,               Univ. of Southern Denmark, Denmark     (Polarizable embedding)
  Ola B. Lutnaes,              University of Oslo,        Norway      (DFT Hessian)
  Juan I. Melo,                University of Buenos Aires,Argentina   (LRESC, Relativistic Effects on NMR Shieldings)
  Kurt V. Mikkelsen,           University of Copenhagen,  Denmark     (MC-SCRF, QM/MM, and MP3)
  Rolf H. Myhre,               NTNU,                      Norway      (Subsystems and CC3)
  Christian Neiss,             Univ. Erlangen-Nuernberg,  Germany     (CCSD(R12))
  Christian B. Nielsen,        University of Copenhagen,  Denmark     (QM/MM)
  Patrick Norman,              KTH Stockholm,             Sweden      (Cubic response and complex frequency response in RESPONS)
  Jeppe Olsen,                 Aarhus University,         Denmark     (SIRIUS CI/density modules)
  Jogvan Magnus H. Olsen,      Aarhus University,         Denmark     (Polarizable embedding and polarizable density embedding)
  Anders Osted,                Copenhagen University,     Denmark     (QM/MM)
  Martin J. Packer,            University of Sheffield,   UK          (SOPPA)
  Filip Pawlowski,             Kazimierz Wielki UniversityPoland      (CC3)
  Morten N. Pedersen,          Univ. of Southern Denmark, Denmark     (Polarizable embedding)
  Thomas B. Pedersen,          University of Oslo,        Norway      (Cholesky decomposition)
  Patricio F. Provasi,         University of Northeastern,Argentina   (Analysis of coupling constants in localized orbitals)
  Peter Reinholdt,             Univ. of Southern Denmark, Denmark     (Polarizable embedding and polarizable density embedding)
  Zilvinas Rinkevicius,        KTH Stockholm,             Sweden      (open-shell DFT, ESR)
  Elias Rudberg,               KTH Stockholm,             Sweden      (DFT grid and basis info)
  Torgeir A. Ruden,            University of Oslo,        Norway      (Numerical derivatives in ABACUS)
  Kenneth Ruud,                UiT The Arctic U. of NorwayNorway      (DALTON; ABACUS magnetic properties and much more)
  Pawel Salek,                 KTH Stockholm,             Sweden      (DALTON; DFT code)
  Claire C. M. Samson,         University of Karlsruhe    Germany     (Boys localization, r12 integrals in ERI)
  Alfredo Sanchez de Meras,    University of Valencia,    Spain       (CC module, Cholesky decomposition)
  Trond Saue,                  Paul Sabatier University,  France      (direct Fock matrix construction)
  Stephan P. A. Sauer,         University of Copenhagen,  Denmark     (SOPPA(CCSD), SOPPA prop., AOSOPPA, vibrational g-factors)
  Bernd Schimmelpfennig,       Forschungszentrum KarlsruheGermany     (AMFI module)
  Anna K. Schnack-Petersen,    University of Copenhagen,  Denmark     (RPA(D) and HRPA(D) properties in AOSOPPA)
  Kristian Sneskov,            Aarhus University,         Denmark     (Polarizable embedding, QM/MM)
  Arnfinn H. Steindal,         UiT The Arctic U. of NorwayNorway      (parallel QM/MM, polarizable embedding)
  Casper Steinmann,            Aalborg University,        Denmark     (QFIT, polarizable embedding)
  K. O. Sylvester-Hvid,        University of Copenhagen,  Denmark     (MC-SCRF)
  Peter R. Taylor,             VLSCI/Univ. of Melbourne,  Australia   (Symmetry handling ABACUS, integral transformation)
  Andrew M. Teale,             University of Nottingham,  England     (DFT-AC, DFT-D)
  David P. Tew,                University of Bristol,     England     (CCSD(R12))
  Julien Toulouse,             Sorbonne Univ.,            France      (MC-srDFT)
  Olav Vahtras,                KTH Stockholm,             Sweden      (Triplet response, spin-orbit, ESR, TDDFT, open-shell DFT)
  Lucas Visscher,              Vrije Universiteit AmsterdaNetherlands (Frozen density embedding)
  David J. Wilson,             La Trobe University,       Australia   (DFT Hessian and DFT magnetizabilities)
  Luna Zamok,                  University of Copenhagen,  Denmark     (Block Lanczos RPA solver in SOPPA module)
  Hans Agren,                  KTH Stockholm,             Sweden      (SIRIUS module, RESPONS, MC-SCRF solvation)
 --------------------------------------------------------------------------------

     Date and time (Linux)  : Mon May  4 21:57:25 2026
     Host name              : debian                                  

 * Work memory size             :    64000000 =  488.28 megabytes.

 * Directories for basis set searches:
   1) /home/vdwv/DIPLOM_ITMO/CALCULATIONS_AND_SOFTS/softwares/Dalton_Shenanigans/dalton/dalton/build
   2) /home/vdwv/DIPLOM_ITMO/CALCULATIONS_AND_SOFTS/softwares/Dalton_Shenanigans/dalton/dalton/build/basis


Compilation information
-----------------------

 Who compiled             | vdwv
 Host                     | debian
 System                   | Linux-6.12.73+deb13-amd64
 CMake generator          | Unix Makefiles
 Processor                | x86_64
 64-bit integers          | OFF
 MPI                      | OFF
 Fortran compiler         | /usr/bin/gfortran
 Fortran compiler version | GNU Fortran (Debian 14.2.0-19) 14.2.0
 C compiler               | /usr/bin/gcc
 C compiler version       | gcc (Debian 14.2.0-19) 14.2.0
 C++ compiler             | /usr/bin/g++
 C++ compiler version     | g++ (Debian 14.2.0-19) 14.2.0
 BLAS                     | /opt/intel/oneapi/mkl/2025.3/lib/intel64/libmkl_gf
                          | _lp64.so;/opt/intel/oneapi/mkl/2025.3/lib/intel64/
                          | libmkl_sequential.so;/opt/intel/oneapi/mkl/2025.3/
                          | lib/intel64/libmkl_core.so;/usr/lib/x86_64-linux-g
                          | nu/libpthread.a;/usr/lib/x86_64-linux-gnu/libm.so
 LAPACK                   | /opt/intel/oneapi/mkl/2025.3/lib/intel64/libmkl_la
                          | pack95_lp64.a;/opt/intel/oneapi/mkl/2025.3/lib/int
                          | el64/libmkl_gf_lp64.so
 Static linking           | OFF
 Last Git revision        | 1892235f9264b9be21ec2fefe6e0081d659ab244
 Git branch               | master
 Configuration time       | 2026-05-04 17:50:26.788788

 * Sequential calculation.


   Content of the .dal input file
 ----------------------------------

BASIS
3-21G
Benzene C6H6 using the 3-21G basis
Using automatic symmetry detection
AtomTypes=2 Angstrom
Charge=6.0 Atoms=6
C1    0.000      1.385      0.000
C2    1.199      0.692      0.000
C3    1.199     -0.692      0.000
C4    0.000     -1.385      0.000
C5   -1.199     -0.692      0.000
C6   -1.199      0.692      0.000
Charge=1.0 Atoms=6
H7    0.000      2.457      0.000
H8    2.128      1.228      0.000
H9    2.128     -1.228      0.000
H10   0.000     -2.457      0.000
H11  -2.128     -1.228      0.000
H12  -2.128      1.228      0.000

**DALTON INPUT
.RUN WAVE FUN
**WAVE FUN
.HF
**END OF


       *******************************************************************
       *********** Output from DALTON general input processing ***********
       *******************************************************************

 --------------------------------------------------------------------------------
   Overall default print level:    0
   Print level for DALTON.STAT:    1

    HERMIT 1- and 2-electron integral sections will be executed
    "Old" integral transformation used (limited to max 255 basis functions)
    Wave function sections will be executed (SIRIUS module)
 --------------------------------------------------------------------------------


   ****************************************************************************
   *************** Output of molecule and basis set information ***************
   ****************************************************************************


    The two title cards from your ".mol" input:
    --------------------------------------------------------------------------------
 1: Benzene C6H6 using the 3-21G basis
 2: Using automatic symmetry detection
    --------------------------------------------------------------------------------

  Coordinates are entered in Angstrom and converted to atomic units.
          - Conversion factor : 1 bohr = 0.52917721080 A

  Atomic type no.    1
  --------------------
  Nuclear charge:   6.00000
  Number of symmetry independent centers:    6
  Number of basis sets to read;    2
  Basis set file used for this atomic type with Z =   6 :
     "/home/vdwv/DIPLOM_ITMO/CALCULATIONS_AND_SOFTS/softwares/Dalton_Shenanigans/dalton/dalton/build/basis/3-21G"

  Info about the basis set file: your basis has no documentation.
  Basis set: 3-21G                                                                           

  Atomic type no.    2
  --------------------
  Nuclear charge:   1.00000
  Number of symmetry independent centers:    6
  Number of basis sets to read;    2
  Basis set file used for this atomic type with Z =   1 :
     "/home/vdwv/DIPLOM_ITMO/CALCULATIONS_AND_SOFTS/softwares/Dalton_Shenanigans/dalton/dalton/build/basis/3-21G"

  Info about the basis set file: your basis has no documentation.
  Basis set: 3-21G                                                                           


                      SYMADD: Addition of symmetry requested
                      --------------------------------------

 Symmetry test threshold:  5.00E-06

@  The molecule has been centered at center of mass and rotated
@  so the principal axes of inertia are along coordinate axes.

 Symmetry class found: D(2h)          

 Symmetry Independent Centres             
 ----------------------------
C2     6 :      0.00000000     2.26578162     1.30769048  Isotope  1
C1     6 :      0.00000000     0.00000000     2.61727068  Isotope  1
H8     1 :      0.00000000     4.02133719     2.32058368  Isotope  1
H7     1 :      0.00000000     0.00000000     4.64305709  Isotope  1

 The following symmetry elements were found:   X  Y  Z  


                         SYMGRP: Point group information
                         -------------------------------

@    Full point group is: D(2h)          
@    Represented as:      D2h

@  * The irrep name for each symmetry:    1: Ag     2: B3u    3: B2u    4: B1g    5: B1u    6: B2g    7: B3g    8: Au 


   * The point group was generated by:

      Reflection in the yz-plane
      Reflection in the xz-plane
      Reflection in the xy-plane

   * Group multiplication table

        |  E   C2z  C2y  C2x   i   Oxy  Oxz  Oyz
   -----+----------------------------------------
     E  |  E   C2z  C2y  C2x   i   Oxy  Oxz  Oyz
    C2z | C2z   E   C2x  C2y  Oxy   i   Oyz  Oxz
    C2y | C2y  C2x   E   C2z  Oxz  Oyz   i   Oxy
    C2x | C2x  C2y  C2z   E   Oyz  Oxz  Oxy   i 
     i  |  i   Oxy  Oxz  Oyz   E   C2z  C2y  C2x
    Oxy | Oxy   i   Oyz  Oxz  C2z   E   C2x  C2y
    Oxz | Oxz  Oyz   i   Oxy  C2y  C2x   E   C2z
    Oyz | Oyz  Oxz  Oxy   i   C2x  C2y  C2z   E 

   * Character table

        |  E   C2z  C2y  C2x   i   Oxy  Oxz  Oyz
   -----+----------------------------------------
    Ag  |   1    1    1    1    1    1    1    1
    B3u |   1   -1   -1    1   -1    1    1   -1
    B2u |   1   -1    1   -1   -1    1   -1    1
    B1g |   1    1   -1   -1    1    1   -1   -1
    B1u |   1    1   -1   -1   -1   -1    1    1
    B2g |   1   -1    1   -1    1   -1    1   -1
    B3g |   1   -1   -1    1    1   -1   -1    1
    Au  |   1    1    1    1   -1   -1   -1   -1

   * Direct product table

        | Ag   B3u  B2u  B1g  B1u  B2g  B3g  Au 
   -----+----------------------------------------
    Ag  | Ag   B3u  B2u  B1g  B1u  B2g  B3g  Au 
    B3u | B3u  Ag   B1g  B2u  B2g  B1u  Au   B3g
    B2u | B2u  B1g  Ag   B3u  B3g  Au   B1u  B2g
    B1g | B1g  B2u  B3u  Ag   Au   B3g  B2g  B1u
    B1u | B1u  B2g  B3g  Au   Ag   B3u  B2u  B1g
    B2g | B2g  B1u  Au   B3g  B3u  Ag   B1g  B2u
    B3g | B3g  Au   B1u  B2g  B2u  B1g  Ag   B3u
    Au  | Au   B3g  B2g  B1u  B1g  B2u  B3u  Ag 


                                 Isotopic Masses
                                 ---------------

                           C1  _1     12.000000
                           C1  _2     12.000000
                           C2  _1     12.000000
                           C2  _2     12.000000
                           C2  _3     12.000000
                           C2  _4     12.000000
                           H7  _1      1.007825
                           H7  _2      1.007825
                           H8  _1      1.007825
                           H8  _2      1.007825
                           H8  _3      1.007825
                           H8  _4      1.007825

                       Total mass:    78.046950 amu
                       Natural abundance:  93.495 %

 Center-of-mass coordinates (a.u.):    0.000000    0.000000    0.000000
 Center-of-mass coordinates (Angs):    0.000000    0.000000    0.000000


  Atoms and basis sets
  --------------------

  Number of atom types :    2
  Total number of atoms:   12

  Basis set used is "3-21G" from the basis set library.

  label    atoms   charge   prim   cont     basis
  ----------------------------------------------------------------------
  C2          6    6.0000    15     9      [6s3p|3s2p]                                        
  H8          6    1.0000     3     2      [3s|2s]                                            
  ----------------------------------------------------------------------
  total:     12   42.0000   108    66
  ----------------------------------------------------------------------

  Threshold for neglecting AO integrals:  1.00D-12


  Cartesian Coordinates (bohr)
  ----------------------------

  Total number of coordinates:   36
  C1  / 1 :     1  x   0.0000000000    2  y   0.0000000000    3  z   2.6172706831
  C1  / 2 :     4  x   0.0000000000    5  y   0.0000000000    6  z  -2.6172706831
  C2  / 1 :     7  x   0.0000000000    8  y   2.2657816239    9  z   1.3076904785
  C2  / 2 :    10  x   0.0000000000   11  y  -2.2657816239   12  z   1.3076904785
  C2  / 3 :    13  x   0.0000000000   14  y   2.2657816239   15  z  -1.3076904785
  C2  / 4 :    16  x   0.0000000000   17  y  -2.2657816239   18  z  -1.3076904785
  H7  / 1 :    19  x   0.0000000000   20  y   0.0000000000   21  z   4.6430570891
  H7  / 2 :    22  x   0.0000000000   23  y   0.0000000000   24  z  -4.6430570891
  H8  / 1 :    25  x   0.0000000000   26  y   4.0213371940   27  z   2.3205836815
  H8  / 2 :    28  x   0.0000000000   29  y  -4.0213371940   30  z   2.3205836815
  H8  / 3 :    31  x   0.0000000000   32  y   4.0213371940   33  z  -2.3205836815
  H8  / 4 :    34  x   0.0000000000   35  y  -4.0213371940   36  z  -2.3205836815


  Cartesian Coordinates (xyz format; angstrom)
  --------------------------------------------

   12

  C        0.0000000000            0.0000000000            1.3850000000
  C        0.0000000000            0.0000000000           -1.3850000000
  C        0.0000000000            1.1990000000            0.6920000000
  C        0.0000000000           -1.1990000000            0.6920000000
  C        0.0000000000            1.1990000000           -0.6920000000
  C        0.0000000000           -1.1990000000           -0.6920000000
  H        0.0000000000            0.0000000000            2.4570000000
  H        0.0000000000            0.0000000000           -2.4570000000
  H        0.0000000000            2.1280000000            1.2280000000
  H        0.0000000000           -2.1280000000            1.2280000000
  H        0.0000000000            2.1280000000           -1.2280000000
  H        0.0000000000           -2.1280000000           -1.2280000000


  Symmetry Coordinates
  --------------------

  Number of coordinates in each symmetry:     6    4    6    2    6    4    6    2

  Symmetry  Ag  ( 1)

    1   C1    z    [  3  -    6 ]/2
    2   C2    y    [  8  -   11  +   14  -   17 ]/4
    3   C2    z    [  9  +   12  -   15  -   18 ]/4
    4   H7    z    [ 21  -   24 ]/2
    5   H8    y    [ 26  -   29  +   32  -   35 ]/4
    6   H8    z    [ 27  +   30  -   33  -   36 ]/4

  Symmetry  B3u ( 2)

    7   C1    x    [  1  +    4 ]/2
    8   C2    x    [  7  +   10  +   13  +   16 ]/4
    9   H7    x    [ 19  +   22 ]/2
   10   H8    x    [ 25  +   28  +   31  +   34 ]/4

  Symmetry  B2u ( 3)

   11   C1    y    [  2  +    5 ]/2
   12   C2    y    [  8  +   11  +   14  +   17 ]/4
   13   C2    z    [  9  -   12  -   15  +   18 ]/4
   14   H7    y    [ 20  +   23 ]/2
   15   H8    y    [ 26  +   29  +   32  +   35 ]/4
   16   H8    z    [ 27  -   30  -   33  +   36 ]/4

  Symmetry  B1g ( 4)

   17   C2    x    [  7  -   10  +   13  -   16 ]/4
   18   H8    x    [ 25  -   28  +   31  -   34 ]/4

  Symmetry  B1u ( 5)

   19   C1    z    [  3  +    6 ]/2
   20   C2    y    [  8  -   11  -   14  +   17 ]/4
   21   C2    z    [  9  +   12  +   15  +   18 ]/4
   22   H7    z    [ 21  +   24 ]/2
   23   H8    y    [ 26  -   29  -   32  +   35 ]/4
   24   H8    z    [ 27  +   30  +   33  +   36 ]/4

  Symmetry  B2g ( 6)

   25   C1    x    [  1  -    4 ]/2
   26   C2    x    [  7  +   10  -   13  -   16 ]/4
   27   H7    x    [ 19  -   22 ]/2
   28   H8    x    [ 25  +   28  -   31  -   34 ]/4

  Symmetry  B3g ( 7)

   29   C1    y    [  2  -    5 ]/2
   30   C2    y    [  8  +   11  -   14  -   17 ]/4
   31   C2    z    [  9  -   12  +   15  -   18 ]/4
   32   H7    y    [ 20  -   23 ]/2
   33   H8    y    [ 26  +   29  -   32  -   35 ]/4
   34   H8    z    [ 27  -   30  +   33  -   36 ]/4

  Symmetry  Au  ( 8)

   35   C2    x    [  7  -   10  -   13  +   16 ]/4
   36   H8    x    [ 25  -   28  -   31  +   34 ]/4


   Interatomic separations (in Angstrom):
   --------------------------------------

            C1  _1      C1  _2      C2  _1      C2  _2      C2  _3      C2  _4
            ------      ------      ------      ------      ------      ------
 C1  _1:    0.000000
 C1  _2:    2.770000    0.000000
 C2  _1:    1.384865    2.398235    0.000000
 C2  _2:    1.384865    2.398235    2.398000    0.000000
 C2  _3:    2.398235    1.384865    1.384000    2.768729    0.000000
 C2  _4:    2.398235    1.384865    2.768729    1.384000    2.398000    0.000000
 H7  _1:    1.072000    3.842000    2.133735    2.133735    3.369540    3.369540
 H7  _2:    3.842000    1.072000    3.369540    3.369540    2.133735    2.133735
 H8  _1:    2.133784    3.369889    1.072538    3.369900    2.132942    3.841267
 H8  _2:    2.133784    3.369889    3.369900    1.072538    3.841267    2.132942
 H8  _3:    3.369889    2.133784    2.132942    3.841267    1.072538    3.369900
 H8  _4:    3.369889    2.133784    3.841267    2.132942    3.369900    1.072538

            H7  _1      H7  _2      H8  _1      H8  _2      H8  _3      H8  _4
            ------      ------      ------      ------      ------      ------
 H7  _1:    0.000000
 H7  _2:    4.914000    0.000000
 H8  _1:    2.457402    4.255304    0.000000
 H8  _2:    2.457402    4.255304    4.256000    0.000000
 H8  _3:    4.255304    2.457402    2.456000    4.913804    0.000000
 H8  _4:    4.255304    2.457402    4.913804    2.456000    4.256000    0.000000


  Max    interatomic separation is    4.9140 Angstrom (    9.2861 Bohr)
  between atoms    8 and    7, "H7  _2" and "H7  _1".

  Min HX interatomic separation is    1.0720 Angstrom (    2.0258 Bohr)

  Min YX interatomic separation is    1.3840 Angstrom (    2.6154 Bohr)


  Bond distances (Angstrom):
  --------------------------

                  atom 1     atom 2       distance
                  ------     ------       --------
  bond distance:  C2  _1     C1  _1       1.384865
  bond distance:  C2  _2     C1  _1       1.384865
  bond distance:  C2  _3     C1  _2       1.384865
  bond distance:  C2  _3     C2  _1       1.384000
  bond distance:  C2  _4     C1  _2       1.384865
  bond distance:  C2  _4     C2  _2       1.384000
  bond distance:  H7  _1     C1  _1       1.072000
  bond distance:  H7  _2     C1  _2       1.072000
  bond distance:  H8  _1     C2  _1       1.072538
  bond distance:  H8  _2     C2  _2       1.072538
  bond distance:  H8  _3     C2  _3       1.072538
  bond distance:  H8  _4     C2  _4       1.072538


  Bond angles (degrees):
  ----------------------

                  atom 1     atom 2     atom 3         angle
                  ------     ------     ------         -----
  bond angle:     C2  _1     C1  _1     C2  _2       119.946
  bond angle:     C2  _1     C1  _1     H7  _1       120.027
  bond angle:     C2  _2     C1  _1     H7  _1       120.027
  bond angle:     C2  _3     C1  _2     C2  _4       119.946
  bond angle:     C2  _3     C1  _2     H7  _2       120.027
  bond angle:     C2  _4     C1  _2     H7  _2       120.027
  bond angle:     C1  _1     C2  _1     C2  _3       120.027
  bond angle:     C1  _1     C2  _1     H8  _1       119.989
  bond angle:     C2  _3     C2  _1     H8  _1       119.983
  bond angle:     C1  _1     C2  _2     C2  _4       120.027
  bond angle:     C1  _1     C2  _2     H8  _2       119.989
  bond angle:     C2  _4     C2  _2     H8  _2       119.983
  bond angle:     C1  _2     C2  _3     C2  _1       120.027
  bond angle:     C1  _2     C2  _3     H8  _3       119.989
  bond angle:     C2  _1     C2  _3     H8  _3       119.983
  bond angle:     C1  _2     C2  _4     C2  _2       120.027
  bond angle:     C1  _2     C2  _4     H8  _4       119.989
  bond angle:     C2  _2     C2  _4     H8  _4       119.983




 Principal moments of inertia (u*A**2) and principal axes
 --------------------------------------------------------

   IA      87.260122          0.000000    0.000000    1.000000
   IB      87.270183          0.000000    1.000000    0.000000
   IC     174.530305          1.000000    0.000000    0.000000


 Rotational constants
 --------------------

@    The molecule is planar.

               A                   B                   C

           5791.6376           5790.9700           2895.6519 MHz
            0.193188            0.193166            0.096589 cm-1


@  Nuclear repulsion energy :  205.105571477893 Hartree


  Symmetry Orbitals
  -----------------

  Number of orbitals in each symmetry:          16    4   11    2   16    4   11    2


  Symmetry  Ag ( 1)

    1     C1       1s         1 +    2
    2     C1       1s         3 +    4
    3     C1       1s         5 +    6
    4     C1       2pz       11 -   12
    5     C1       2pz       17 -   18
    6     C2       1s        19 +   20 +   21 +   22
    7     C2       1s        23 +   24 +   25 +   26
    8     C2       1s        27 +   28 +   29 +   30
    9     C2       2py       35 -   36 +   37 -   38
   10     C2       2pz       39 +   40 -   41 -   42
   11     C2       2py       47 -   48 +   49 -   50
   12     C2       2pz       51 +   52 -   53 -   54
   13     H7       1s        55 +   56
   14     H7       1s        57 +   58
   15     H8       1s        59 +   60 +   61 +   62
   16     H8       1s        63 +   64 +   65 +   66


  Symmetry  B3u( 2)

   17     C1       2px        7 +    8
   18     C1       2px       13 +   14
   19     C2       2px       31 +   32 +   33 +   34
   20     C2       2px       43 +   44 +   45 +   46


  Symmetry  B2u( 3)

   21     C1       2py        9 +   10
   22     C1       2py       15 +   16
   23     C2       1s        19 -   20 +   21 -   22
   24     C2       1s        23 -   24 +   25 -   26
   25     C2       1s        27 -   28 +   29 -   30
   26     C2       2py       35 +   36 +   37 +   38
   27     C2       2pz       39 -   40 -   41 +   42
   28     C2       2py       47 +   48 +   49 +   50
   29     C2       2pz       51 -   52 -   53 +   54
   30     H8       1s        59 -   60 +   61 -   62
   31     H8       1s        63 -   64 +   65 -   66


  Symmetry  B1g( 4)

   32     C2       2px       31 -   32 +   33 -   34
   33     C2       2px       43 -   44 +   45 -   46


  Symmetry  B1u( 5)

   34     C1       1s         1 -    2
   35     C1       1s         3 -    4
   36     C1       1s         5 -    6
   37     C1       2pz       11 +   12
   38     C1       2pz       17 +   18
   39     C2       1s        19 +   20 -   21 -   22
   40     C2       1s        23 +   24 -   25 -   26
   41     C2       1s        27 +   28 -   29 -   30
   42     C2       2py       35 -   36 -   37 +   38
   43     C2       2pz       39 +   40 +   41 +   42
   44     C2       2py       47 -   48 -   49 +   50
   45     C2       2pz       51 +   52 +   53 +   54
   46     H7       1s        55 -   56
   47     H7       1s        57 -   58
   48     H8       1s        59 +   60 -   61 -   62
   49     H8       1s        63 +   64 -   65 -   66


  Symmetry  B2g( 6)

   50     C1       2px        7 -    8
   51     C1       2px       13 -   14
   52     C2       2px       31 +   32 -   33 -   34
   53     C2       2px       43 +   44 -   45 -   46


  Symmetry  B3g( 7)

   54     C1       2py        9 -   10
   55     C1       2py       15 -   16
   56     C2       1s        19 -   20 -   21 +   22
   57     C2       1s        23 -   24 -   25 +   26
   58     C2       1s        27 -   28 -   29 +   30
   59     C2       2py       35 +   36 -   37 -   38
   60     C2       2pz       39 -   40 +   41 -   42
   61     C2       2py       47 +   48 -   49 -   50
   62     C2       2pz       51 -   52 +   53 -   54
   63     H8       1s        59 -   60 -   61 +   62
   64     H8       1s        63 -   64 -   65 +   66


  Symmetry  Au ( 8)

   65     C2       2px       31 -   32 -   33 +   34
   66     C2       2px       43 -   44 -   45 +   46

  Symmetries of electric field:  B3u(2)  B2u(3)  B1u(5)

  Symmetries of magnetic field:  B3g(7)  B2g(6)  B1g(4)


                     .---------------------------------------.
                     | Starting in Integral Section (HERMIT) |
                     `---------------------------------------'



 ***************************************************************************************
 ****************** Output from **INTEGRALS input processing (HERMIT) ******************
 ***************************************************************************************


 - Using defaults, no **INTEGRALS input found

 Default print level:        1

 Calculation of one- and two-electron Hamiltonian integrals.

 Center of mass  (bohr):      0.000000000000      0.000000000000      0.000000000000
 Operator center (bohr):      0.000000000000      0.000000000000      0.000000000000
 Gauge origin    (bohr):      0.000000000000      0.000000000000      0.000000000000
 Dipole origin   (bohr):      0.000000000000      0.000000000000      0.000000000000

Calculation of 2-electron integrals are postponed until they are needed.


     ************************************************************************
     ************************** Output from HERINT **************************
     ************************************************************************



                      Nuclear contribution to dipole moments
                      --------------------------------------

                    All dipole components are zero by symmetry


  Total CPU  time used in HERMIT:   0.02 seconds
  Total wall time used in HERMIT:   0.02 seconds


                        .----------------------------------.
                        | End of Integral Section (HERMIT) |
                        `----------------------------------'



                   .--------------------------------------------.
                   | Starting in Wave Function Section (SIRIUS) |
                   `--------------------------------------------'


 *** Output from Huckel module :

     Using EWMO model:          F
     Using EHT  model:          T
     Number of Huckel orbitals each symmetry:    9    2    6    1    9    2    6    1

 Huckel EHT eigenvalues for symmetry :  1
          -11.418493     -11.378715      -1.582409      -0.877197      -0.789792
           -0.412895      -0.213742      -0.207940      -0.176069

 Huckel EHT eigenvalues for symmetry :  2
           -0.709936      -0.287743

 Huckel EHT eigenvalues for symmetry :  3
          -11.397821      -1.223575      -0.530068      -0.490755      -0.201329
           -0.165241

 Huckel EHT eigenvalues for symmetry :  4
           -0.459621

 Huckel EHT eigenvalues for symmetry :  5
          -11.397824     -11.363497      -1.223454      -0.624322      -0.530073
           -0.233524      -0.201254      -0.165127      -0.159373

 Huckel EHT eigenvalues for symmetry :  6
           -0.459516      -0.236972

 Huckel EHT eigenvalues for symmetry :  7
          -11.378699      -0.876953      -0.412785      -0.213725      -0.176063
           -0.163087

 Huckel EHT eigenvalues for symmetry :  8
           -0.287613

 **********************************************************************
 *SIRIUS* a direct, restricted step, second order MCSCF program       *
 **********************************************************************

 
     Date and time (Linux)  : Mon May  4 21:57:25 2026
     Host name              : debian                                  

 Title lines from ".mol" input file:
     Benzene C6H6 using the 3-21G basis
     Using automatic symmetry detection

 Print level on unit LUPRI =   2 is   0
 Print level on unit LUW4  =   2 is   5

@    Restricted, closed shell Hartree-Fock calculation.

 Initial molecular orbitals are obtained according to
 ".MOSTART EHT   " input option

     Wave function specification
     ============================
@    Wave function type        --- HF ---
@    Number of closed shell electrons          42
@    Number of electrons in active shells       0
@    Total charge of the molecule               0

@    Spin multiplicity and 2 M_S                1         0
@    Total number of symmetries                 8 (point group: D2h)
@    Reference state symmetry                   1 (irrep name : Ag )

     Orbital specifications
     ======================
@    Abelian symmetry species          All |    1    2    3    4    5    6    7    8
@                                          |  Ag   B3u  B2u  B1g  B1u  B2g  B3g  Au 
                                       --- |  ---  ---  ---  ---  ---  ---  ---  ---
@    Total number of orbitals           66 |   16    4   11    2   16    4   11    2
@    Number of basis functions          66 |   16    4   11    2   16    4   11    2

      ** Automatic occupation of RHF orbitals **

      -- Initial occupation of symmetries is determined from extended Huckel guess.           
      -- Initial occupation of symmetries is :
@    Occupied SCF orbitals              21 |    6    1    4    1    5    1    3    0

     Maximum number of Fock   iterations      0
     Maximum number of DIIS   iterations     60
     Maximum number of QC-SCF iterations     60
     Threshold for SCF convergence     1.00D-05


 ***********************************************
 ***** DIIS acceleration of SCF iterations *****
 ***********************************************

 C1-DIIS algorithm; max error vectors =    8

 Automatic occupation of symmetries with  42 electrons.

 Iter     Total energy    Error norm  Delta(E)    SCF occupation
 -----------------------------------------------------------------------------

Calculating AOSUPINT

---> (Re)generating AOTWOINT


     ************************************************************************
     ************************** Output from HERINT **************************
     ************************************************************************


***  INFO  GETGAB: GABSO--- not found on AOGABINT. Regenerating.

 Threshold for neglecting two-electron integrals:  1.00D-12
 HERMIT - Number of two-electron integrals written:      360416 ( 14.7% )
 HERMIT - Megabytes written:                              4.257

  Total CPU  time used in TWOINT:   0.11 seconds
  Total wall time used in TWOINT:   0.11 seconds
  Time used in TWOINT     is       0.13 seconds
  CPU  time used in MAKE_AOTWOINT is   0.13 seconds
  WALL time used in MAKE_AOTWOINT is   0.13 seconds
     (Precalculated AO two-electron integrals are transformed to P-supermatrix elements.
      Threshold for discarding integrals :  1.00D-12 )

@  1  -228.712061245       3.90D+00  -2.29D+02     6   1   4   1   5   1   3   0
      Virial theorem: -V/T =      2.011116
@    MULPOP   C1  _1  0.21; C1  _2  0.21; C2  _1  0.22; C2  _2  0.22; C2  _3  0.22; C2  _4  0.22; H7  _1 -0.22; H7  _2 -0.22; H8  _1 -0.22; H8  _2 -0.22; 
@             H8  _3 -0.22; H8  _4 -0.22; 
   1  Level shift: doubly occupied orbital energies shifted by -2.00D-01
 -----------------------------------------------------------------------------
@  2  -229.384525163       7.08D-01  -6.72D-01     6   1   4   1   5   1   3   0
      Virial theorem: -V/T =      1.998793
@    MULPOP   C1  _1 -0.18; C1  _2 -0.18; C2  _1 -0.18; C2  _2 -0.18; C2  _3 -0.18; C2  _4 -0.18; H7  _1  0.18; H7  _2  0.18; H8  _1  0.18; H8  _2  0.18; 
@             H8  _3  0.18; H8  _4  0.18; 
   2  Level shift: doubly occupied orbital energies shifted by -5.00D-02
 -----------------------------------------------------------------------------
@  3  -229.416934380       1.62D-01  -3.24D-02     6   1   4   1   5   1   3   0
      Virial theorem: -V/T =      2.002996
@    MULPOP   C1  _1 -0.21; C1  _2 -0.21; C2  _1 -0.20; C2  _2 -0.20; C2  _3 -0.20; C2  _4 -0.20; H7  _1  0.21; H7  _2  0.21; H8  _1  0.21; H8  _2  0.21; 
@             H8  _3  0.21; H8  _4  0.21; 
   3  Level shift: doubly occupied orbital energies shifted by -1.25D-02
 -----------------------------------------------------------------------------
@  4  -229.419346367       2.87D-02  -2.41D-03     6   1   4   1   5   1   3   0
      Virial theorem: -V/T =      2.001728
@    MULPOP   C1  _1 -0.23; C1  _2 -0.23; C2  _1 -0.23; C2  _2 -0.23; C2  _3 -0.23; C2  _4 -0.23; H7  _1  0.23; H7  _2  0.23; H8  _1  0.23; H8  _2  0.23; 
@             H8  _3  0.23; H8  _4  0.23; 
 -----------------------------------------------------------------------------
@  5  -229.419443126       2.35D-03  -9.68D-05     6   1   4   1   5   1   3   0
      Virial theorem: -V/T =      2.001726
@    MULPOP   C1  _1 -0.24; C1  _2 -0.24; C2  _1 -0.24; C2  _2 -0.24; C2  _3 -0.24; C2  _4 -0.24; H7  _1  0.24; H7  _2  0.24; H8  _1  0.24; H8  _2  0.24; 
@             H8  _3  0.24; H8  _4  0.24; 
 -----------------------------------------------------------------------------
@  6  -229.419443771       2.35D-04  -6.45D-07     6   1   4   1   5   1   3   0
      Virial theorem: -V/T =      2.001728
@    MULPOP   C1  _1 -0.24; C1  _2 -0.24; C2  _1 -0.24; C2  _2 -0.24; C2  _3 -0.24; C2  _4 -0.24; H7  _1  0.24; H7  _2  0.24; H8  _1  0.24; H8  _2  0.24; 
@             H8  _3  0.24; H8  _4  0.24; 
 -----------------------------------------------------------------------------
@  7  -229.419443776       7.55D-05  -5.03D-09     6   1   4   1   5   1   3   0
      Virial theorem: -V/T =      2.001727
@    MULPOP   C1  _1 -0.24; C1  _2 -0.24; C2  _1 -0.24; C2  _2 -0.24; C2  _3 -0.24; C2  _4 -0.24; H7  _1  0.24; H7  _2  0.24; H8  _1  0.24; H8  _2  0.24; 
@             H8  _3  0.24; H8  _4  0.24; 
 -----------------------------------------------------------------------------
@  8  -229.419443777       1.48D-05  -3.89D-10     6   1   4   1   5   1   3   0
      Virial theorem: -V/T =      2.001728
@    MULPOP   C1  _1 -0.24; C1  _2 -0.24; C2  _1 -0.24; C2  _2 -0.24; C2  _3 -0.24; C2  _4 -0.24; H7  _1  0.24; H7  _2  0.24; H8  _1  0.24; H8  _2  0.24; 
@             H8  _3  0.24; H8  _4  0.24; 
 -----------------------------------------------------------------------------
@  9  -229.419443777       3.30D-06  -2.01D-11     6   1   4   1   5   1   3   0

@ *** DIIS converged in   9 iterations !
@     Converged SCF energy, gradient:   -229.419443776546    3.30D-06
    - total time used in SIRFCK :              0.00 seconds


 *** SCF orbital energy analysis ***

 Only the 20 lowest virtual orbital energies printed in each symmetry.

 Number of electrons        :   42
 Closed shell orbitals      :    6    1    4    1    5    1    3    0

 Sym       Hartree-Fock orbital energies

1 Ag    -11.17531178   -11.17450614    -1.15738572    -0.82578989    -0.71985053
         -0.49165856     0.25727427     0.37195508     0.50842658     0.90694656
          1.00727776     1.13648131     1.31622112     1.59726677     1.73284475
          2.17236788

2 B3u    -0.50849178     0.15106855     0.95553154     1.10787648

3 B2u   -11.17505109    -1.01658755    -0.62495515    -0.59272467     0.32434604
          0.52414991     0.87033280     1.08837275     1.41455902     1.55802237
          1.81217558

4 B1g    -0.33912284     1.05364702

5 B1u   -11.17552013   -11.17509056    -1.01640806    -0.63937308    -0.59278341
          0.32452089     0.37559232     0.52451782     0.83512977     1.08875412
          1.29030133     1.41520850     1.55844610     1.72315455     1.81244948
          2.77494466

6 B2g    -0.33889272     0.37549007     1.05374729     1.17876119

7 B3g   -11.17526538    -0.82539354    -0.49113793     0.37204157     0.50863216
          0.81344420     1.00780842     1.31604934     1.42409504     1.73351170
          2.17278723

8 Au      0.15140855     1.10798028

    E(LUMO) :     0.15106855 au (symmetry 2)
  - E(HOMO) :    -0.33889272 au (symmetry 6)
  ------------------------------------------
    gap     :     0.48996127 au

 --- Writing SIRIFC interface file

--------------------------------------------------------------------------------


     .--------------------------------------------------.
     | HF-SCF KT IPs [a.u. & eV] from Koopmans' theorem |
     `--------------------------------------------------'


     HF-SCF KT symmetry 1 ( Ag ) in point group D2h -- 6 principal poles with pole strength 1

   ============  ============  ============  ============  ============
      11.175312     11.174506      1.157386      0.825790      0.719851
     304.095702    304.073780     31.494067     22.470886     19.588129
   ============  ============  ============  ============  ============

   ============
       0.491659
      13.378710
   ============

     HF-SCF KT symmetry 2 ( B3u) in point group D2h -- 1 principal poles with pole strength 1

   ============
       0.508492
      13.836765
   ============

     HF-SCF KT symmetry 3 ( B2u) in point group D2h -- 4 principal poles with pole strength 1

   ============  ============  ============  ============
      11.175051      1.016588      0.624955      0.592725
     304.088609     27.662754     17.005895     16.128859
   ============  ============  ============  ============

     HF-SCF KT symmetry 4 ( B1g) in point group D2h -- 1 principal poles with pole strength 1

   ============
       0.339123
       9.228002
   ============

     HF-SCF KT symmetry 5 ( B1u) in point group D2h -- 5 principal poles with pole strength 1

   ============  ============  ============  ============  ============
      11.175520     11.175091      1.016408      0.639373      0.592783
     304.101372    304.089683     27.657870     17.398227     16.130457
   ============  ============  ============  ============  ============

     HF-SCF KT symmetry 6 ( B2g) in point group D2h -- 1 principal poles with pole strength 1

   ============
       0.338893
       9.221740
   ============

     HF-SCF KT symmetry 7 ( B3g) in point group D2h -- 3 principal poles with pole strength 1

   ============  ============  ============
      11.175265      0.825394      0.491138
     304.094440     22.460101     13.364543
   ============  ============  ============

@ Summary of HF-SCF KT ionization potentials [eV]:

@ Symmetry 1 (Ag ) :   304.096     304.074      31.494      22.471      19.588
@                       13.379

@ Symmetry 2 (B3u) :    13.837

@ Symmetry 3 (B2u) :   304.089      27.663      17.006      16.129

@ Symmetry 4 (B1g) :     9.228

@ Symmetry 5 (B1u) :   304.101     304.090      27.658      17.398      16.130

@ Symmetry 6 (B2g) :     9.222

@ Symmetry 7 (B3g) :   304.094      22.460      13.365

@ Symmetry 8 (Au ) :  No IPs in this symmetry

  === End of HF-SCF KT output ===
--------------------------------------------------------------------------------


 CPU and wall time for SCF :       0.155       0.155


                       .-----------------------------------.
                       | --- Final results from SIRIUS --- |
                       `-----------------------------------'


@    Spin multiplicity:           1
@    Spatial symmetry:            1 ( irrep  Ag  in D2h )
@    Total charge of molecule:    0

@    Final HF energy:            -229.419443776546                 
@    Nuclear repulsion:           205.105571477893
@    Electronic energy:          -434.525015254439

@    Final gradient norm:           0.000003304534

 
     Date and time (Linux)  : Mon May  4 21:57:25 2026
     Host name              : debian                                  

File label for MO orbitals:   4May26   FOCKDIIS

 (Only coefficients > 0.0100 are printed.)

 Molecular orbitals for symmetry species 1  (Ag )
 ------------------------------------------------

    Orbital         1        2        3        4        5        6        7
   1 C1  :1s     0.5849   0.3808  -0.0976   0.1076  -0.0115  -0.0042   0.0436
   2 C1  :1s     0.0608   0.0345   0.1096  -0.1113   0.0074   0.0053  -0.0204
   3 C1  :1s    -0.0611  -0.0116   0.1809  -0.3445   0.0579   0.0205  -0.5438
   4 C1  :2pz   -0.0016   0.0013  -0.0604  -0.0531   0.1688  -0.1933  -0.0886
   5 C1  :2pz    0.0167  -0.0037  -0.0120  -0.0074   0.1072  -0.2365  -0.3232
   6 C2  :1s    -0.2696   0.4133  -0.0977  -0.0538  -0.0116   0.0021   0.0436
   7 C2  :1s    -0.0283   0.0379   0.1097   0.0556   0.0074  -0.0027  -0.0204
   8 C2  :1s     0.0298  -0.0150   0.1809   0.1721   0.0580  -0.0102  -0.5438
   9 C2  :2py    0.0008   0.0010  -0.0522   0.1033   0.1463  -0.0152  -0.0770
  10 C2  :2pz    0.0002   0.0006  -0.0303  -0.1262   0.0842   0.2199  -0.0444
  11 C2  :2py   -0.0115  -0.0023  -0.0103   0.0316   0.0929   0.0367  -0.2806
  12 C2  :2pz    0.0028  -0.0017  -0.0060  -0.0474   0.0535   0.1730  -0.1620
  13 H7  :1s    -0.0011  -0.0012   0.0337  -0.1071   0.1038  -0.1538   0.0394
  14 H7  :1s     0.0026   0.0065  -0.0053  -0.0516   0.0638  -0.1225   0.7435
  15 H8  :1s     0.0005  -0.0013   0.0337   0.0534   0.1038   0.0769   0.0394
  16 H8  :1s    -0.0009   0.0067  -0.0053   0.0257   0.0638   0.0614   0.7442

    Orbital         8        9       10       11       12       13       14
   1 C1  :1s    -0.0963  -0.0910  -0.0090   0.0725  -0.0010  -0.0278   0.0171
   2 C1  :1s     0.0357   0.0154   0.0545  -0.0127  -0.3575   0.0636  -0.6000
   3 C1  :1s     1.4774   1.8652   0.1097   0.0453   0.1726   0.4256   0.7712
   4 C1  :2pz    0.0923  -0.1936  -0.2671   0.1753   0.2710   0.6320  -0.2467
   5 C1  :2pz    0.5966  -1.5418   0.3013  -0.0132  -0.1419  -1.6534   0.3515
   6 C2  :1s     0.0481   0.0455  -0.0085  -0.0363  -0.0009   0.0139   0.0170
   7 C2  :1s    -0.0178  -0.0077   0.0547   0.0061  -0.3576  -0.0326  -0.6000
   8 C2  :1s    -0.7377  -0.9338   0.1095  -0.0213   0.1730  -0.2127   0.7715
   9 C2  :2py   -0.0142   0.0849  -0.2295  -0.3163   0.2357  -0.2896  -0.2127
  10 C2  :2pz   -0.0677   0.0464  -0.1348   0.3698   0.1354  -0.1300  -0.1222
  11 C2  :2py   -0.0879   1.0309   0.2596   0.2199  -0.1253   0.7862   0.2978
  12 C2  :2pz   -0.4440  -0.2466   0.1521  -0.3639  -0.0720   0.2906   0.1709
  13 H7  :1s     0.0131   0.0062  -0.3388   0.2992  -0.3375  -0.4297   0.2123
  14 H7  :1s    -1.2472   0.8654   0.0892  -0.1363   0.2236   1.2194  -0.6072
  15 H8  :1s    -0.0065  -0.0032  -0.3373  -0.1523  -0.3373   0.2146   0.2136
  16 H8  :1s     0.6223  -0.4314   0.0892   0.0686   0.2249  -0.6093  -0.6038

    Orbital        15       16
   1 C1  :1s     0.0024   0.0292
   2 C1  :1s    -0.4532   1.1490
   3 C1  :1s     1.1397  -3.3453
   4 C1  :2pz   -0.2747  -0.2327
   5 C1  :2pz    1.9839   2.2066
   6 C2  :1s    -0.0013  -0.0146
   7 C2  :1s     0.2281  -0.5736
   8 C2  :1s    -0.5704   1.6730
   9 C2  :2py   -0.0208   0.0056
  10 C2  :2pz    0.3117   0.2228
  11 C2  :2py   -0.5508  -1.1121
  12 C2  :2pz   -1.0299  -0.2775
  13 H7  :1s    -0.6316  -0.2316
  14 H7  :1s    -0.8318  -0.3906
  15 H8  :1s     0.3152   0.1153
  16 H8  :1s     0.4160   0.1948

 Molecular orbitals for symmetry species 2  (B3u)
 ------------------------------------------------

    Orbital         1        2        3        4
   1 C1  :2px    0.1806   0.2689  -0.4389  -0.6476
   2 C1  :2px    0.1740   0.6063   0.2753   0.8538
   3 C2  :2px    0.1807  -0.1344  -0.4391   0.3236
   4 C2  :2px    0.1741  -0.3030   0.2757  -0.4267

 Molecular orbitals for symmetry species 3  (B2u)
 ------------------------------------------------

    Orbital         1        2        3        4        5        6        7
   1 C1  :2py   -0.0018   0.1036   0.2457  -0.0744  -0.0279   0.2128   0.3896
   2 C1  :2py    0.0113   0.0099   0.1406  -0.0381   0.0699   1.9320  -0.4778
   3 C2  :1s     0.4935  -0.1190   0.0000   0.0183   0.0356   0.0544  -0.0000
   4 C2  :1s     0.0481   0.1277  -0.0000  -0.0228  -0.0009   0.0046  -0.0004
   5 C2  :1s    -0.0275   0.2780   0.0002  -0.0312  -0.7191  -1.5688  -0.0015
   6 C2  :2py   -0.0010   0.0044  -0.1223   0.1763  -0.1474   0.0628  -0.1948
   7 C2  :2pz    0.0005  -0.0576   0.2135   0.1433  -0.0689  -0.0870   0.3376
   8 C2  :2py    0.0044  -0.0074  -0.0699   0.1428  -0.4880   0.6504   0.2408
   9 C2  :2pz   -0.0040  -0.0100   0.1222   0.1035  -0.3220  -0.7400  -0.4172
  10 H8  :1s    -0.0011   0.0631   0.0005   0.1331   0.0153  -0.1114  -0.0004
  11 H8  :1s     0.0049   0.0125   0.0004   0.1037   1.0523   0.1390   0.0002

    Orbital         8        9       10       11
   1 C1  :2py   -0.5508  -0.3073  -0.3413  -0.1091
   2 C1  :2py    0.5301   0.9406   2.3091   0.5163
   3 C2  :1s    -0.0356   0.0230   0.0031  -0.0083
   4 C2  :1s    -0.1703  -0.1544   0.2632   0.8831
   5 C2  :1s    -0.0250  -0.1462  -2.2466  -1.0805
   6 C2  :2py   -0.1100  -0.4683   0.2506  -0.2262
   7 C2  :2pz    0.2539  -0.0928   0.3417  -0.0671
   8 C2  :2py    0.1626   0.8483  -0.2733   0.5772
   9 C2  :2pz   -0.2118  -0.0538  -1.4915   0.0347
  10 H8  :1s    -0.3790   0.4126   0.3888  -0.1045
  11 H8  :1s     0.1386  -0.8396   0.5639   0.0014

 Molecular orbitals for symmetry species 4  (B1g)
 ------------------------------------------------

    Orbital         1        2
   1 C2  :2px    0.2330   0.5497
   2 C2  :2px    0.2812  -0.4563

 Molecular orbitals for symmetry species 5  (B1u)
 ------------------------------------------------

    Orbital         1        2        3        4        5        6        7
   1 C1  :1s    -0.4441   0.5389  -0.1374   0.0606   0.0213   0.0412   0.0591
   2 C1  :1s    -0.0491   0.0521   0.1475  -0.0634  -0.0265  -0.0010  -0.0664
   3 C1  :1s     0.0908  -0.0252   0.3212  -0.1947  -0.0367  -0.8318  -0.1538
   4 C1  :2pz    0.0013  -0.0006  -0.0288  -0.1124   0.2586  -0.1871  -0.0501
   5 C1  :2pz   -0.0406  -0.0008  -0.0132  -0.1234   0.2020  -0.6744  -1.0549
   6 C2  :1s     0.3818   0.3136  -0.0686  -0.0607   0.0103   0.0206  -0.0591
   7 C2  :1s     0.0430   0.0310   0.0737   0.0635  -0.0129  -0.0005   0.0664
   8 C2  :1s    -0.0874  -0.0223   0.1605   0.1950  -0.0171  -0.4164   0.1516
   9 C2  :2py   -0.0011   0.0004  -0.0573   0.0958   0.1444  -0.0691   0.0434
  10 C2  :2pz   -0.0005  -0.0016   0.0706   0.0556   0.0097  -0.0676   0.0252
  11 C2  :2py    0.0353  -0.0014  -0.0100   0.1058   0.1046  -0.3223   0.9134
  12 C2  :2pz    0.0196   0.0105   0.0041   0.0612   0.0226  -0.1151   0.5275
  13 H7  :1s     0.0017  -0.0012   0.0730  -0.1306   0.1531   0.0175   0.0204
  14 H7  :1s     0.0039   0.0060   0.0145  -0.0742   0.1193   1.2163   1.1251
  15 H8  :1s    -0.0015  -0.0008   0.0365   0.1296   0.0774   0.0088  -0.0205
  16 H8  :1s    -0.0045   0.0025   0.0072   0.0735   0.0602   0.6076  -1.1239

    Orbital         8        9       10       11       12       13       14
   1 C1  :1s     0.0628  -0.1254   0.0410   0.0119  -0.0266  -0.0037  -0.0181
   2 C1  :1s     0.0053   0.0270   0.1969   0.0086   0.1788  -0.3037   0.2844
   3 C1  :1s    -1.8137   2.9376   0.0296  -1.5439   0.1669   2.5947   1.3536
   4 C1  :2pz    0.0128  -0.1472  -0.0363  -0.5067   0.5230  -0.4470   0.0817
   5 C1  :2pz    0.2266  -2.2990  -0.0450   2.1239  -0.8220   1.1376  -2.4238
   6 C2  :1s     0.0314   0.1254   0.0208  -0.0118  -0.0132  -0.0019   0.0180
   7 C2  :1s     0.0026  -0.0272   0.0983  -0.0078   0.0896  -0.1509  -0.2834
   8 C2  :1s    -0.9087  -2.9418   0.0082   1.5459   0.0798   1.3052  -1.3481
   9 C2  :2py   -0.0866   0.1276  -0.2542   0.4385   0.0935  -0.3417  -0.0733
  10 C2  :2pz    0.1626   0.0732   0.4040   0.2534   0.3608   0.1450  -0.0417
  11 C2  :2py   -0.7414   1.9904   0.2136  -1.8385   0.0527   1.4876   2.1064
  12 C2  :2pz    1.5076   1.1496  -0.4027  -1.0612  -0.9064  -1.4571   1.2092
  13 H7  :1s    -0.1288  -0.1512   0.4375   0.1530  -0.4757  -0.4511   0.5497
  14 H7  :1s     0.1589   0.8977  -0.1580  -0.9927   0.9713  -0.6521   0.7048
  15 H8  :1s    -0.0645   0.1505   0.2191  -0.1529  -0.2380  -0.2237  -0.5516
  16 H8  :1s     0.0809  -0.8962  -0.0814   0.9916   0.4848  -0.3231  -0.7057

    Orbital        15
   2 C1  :1s    -1.0195
   3 C1  :1s     1.2530
   4 C1  :2pz    0.2646
   5 C1  :2pz   -0.6001
   7 C2  :1s    -0.5104
   8 C2  :1s     0.6225
   9 C2  :2py    0.0673
  10 C2  :2pz    0.1485
  11 C2  :2py   -0.0300
  12 C2  :2pz   -0.5363
  13 H7  :1s     0.1213
  15 H8  :1s     0.0592

 Molecular orbitals for symmetry species 6  (B2g)
 ------------------------------------------------

    Orbital         1        2        3        4
   1 C1  :2px    0.2690  -0.2095   0.6351  -0.4593
   2 C1  :2px    0.3248  -0.6419  -0.5275   0.9355
   3 C2  :2px    0.1344   0.2096   0.3171   0.4600
   4 C2  :2px    0.1624   0.6422  -0.2628  -0.9364

 Molecular orbitals for symmetry species 7  (B3g)
 ------------------------------------------------

    Orbital         1        2        3        4        5        6        7
   1 C1  :2py   -0.0002   0.1858  -0.2287   0.0596   0.0027  -0.2117   0.5528
   2 C1  :2py    0.0094   0.0657  -0.1520   0.3940   0.8434  -2.9635  -0.4956
   3 C2  :1s     0.4937  -0.0931   0.0036   0.0834   0.0788   0.0001   0.0629
   4 C2  :1s     0.0515   0.0963  -0.0047  -0.0308  -0.0133   0.0001  -0.0110
   5 C2  :1s    -0.0526   0.2984  -0.0179  -1.2792  -1.6181  -0.0099   0.0374
   6 C2  :2py   -0.0011  -0.0066   0.2021  -0.0841   0.1447  -0.1055  -0.0057
   7 C2  :2pz   -0.0008   0.1035  -0.0154  -0.0144   0.0845   0.1829   0.3154
   8 C2  :2py    0.0103  -0.0108   0.2156  -0.5457   0.9472  -1.4814   0.1092
   9 C2  :2pz    0.0114   0.0317   0.0365  -0.0880   1.0299   2.5741  -0.2135
  10 H8  :1s    -0.0009   0.0927   0.1332  -0.0114  -0.0055  -0.0003   0.2607
  11 H8  :1s     0.0020   0.0447   0.1063   1.0790  -0.7486  -0.0006  -0.1185

    Orbital         8        9       10       11
   1 C1  :2py    0.0380  -0.5308   0.3232   0.2200
   2 C1  :2py   -0.1669   2.9130  -0.7056   0.3628
   3 C2  :1s    -0.0240   0.0000   0.0021   0.0253
   4 C2  :1s     0.0557   0.0006  -0.3934   0.9946
   5 C2  :1s     0.3686   0.0041   0.9867  -2.9000
   6 C2  :2py    0.4651  -0.2645  -0.2877  -0.2294
   7 C2  :2pz    0.2889   0.4610   0.0218  -0.0057
   8 C2  :2py   -1.2013   1.4533   1.6701   1.5634
   9 C2  :2pz   -0.7823  -2.5278   0.5444   1.1138
  10 H8  :1s    -0.3719   0.0002  -0.5469  -0.2001
  11 H8  :1s     1.0554   0.0023  -0.7196  -0.3378

 Molecular orbitals for symmetry species 8  (Au )
 ------------------------------------------------

    Orbital         1        2
   1 C2  :2px    0.2328  -0.5608
   2 C2  :2px    0.5255   0.7396

  Total CPU  time used in SIRIUS :   0.16 seconds
  Total wall time used in SIRIUS :   0.16 seconds

 
     Date and time (Linux)  : Mon May  4 21:57:25 2026
     Host name              : debian                                  


                     .---------------------------------------.
                     | End of Wave Function Section (SIRIUS) |
                     `---------------------------------------'

  Total CPU  time used in DALTON:   0.20 seconds
  Total wall time used in DALTON:   0.20 seconds

 
     Date and time (Linux)  : Mon May  4 21:57:25 2026
     Host name              : debian                                  
