

     ************************************************************************
     *************** Dalton - An Electronic Structure Program ***************
     ************************************************************************

    This is output from DALTON release Dalton2025.0-dev (2025)
         ( Web site: http://daltonprogram.org )

   ----------------------------------------------------------------------------

    NOTE:
     
    Dalton is an experimental code for the evaluation of molecular
    properties using (MC)SCF, DFT, CI, and CC wave functions.
    The authors accept no responsibility for the performance of
    the code or for the correctness of the results.
     
    The code (in whole or part) is provided under a licence and
    is not to be reproduced for further distribution without
    the written permission of the authors or their representatives.
     
    See the home page "http://daltonprogram.org" for further information.
     
    If results obtained with this code are published,
    the appropriate citations would be both of:
     
       K. Aidas, C. Angeli, K. L. Bak, V. Bakken,
       R. Bast, L. Boman, O. Christiansen, R. Cimiraglia,
       S. Coriani, P. Dahle, E. K. Dalskov, U. Ekstroem,
       T. Enevoldsen, J. J. Eriksen, P. Ettenhuber, B. Fernandez,
       L. Ferrighi, H. Fliegl, L. Frediani, K. Hald, A. Halkier,
       C. Haettig, H. Heiberg, T. Helgaker, A. C. Hennum,
       H. Hettema, E. Hjertenaes, S. Hoest, I.-M. Hoeyvik,
       M. F. Iozzi, B. Jansik, H. J. Aa. Jensen, D. Jonsson,
       P. Joergensen, J. Kauczor, S. Kirpekar,
       T. Kjaergaard, W. Klopper, S. Knecht, R. Kobayashi, H. Koch,
       J. Kongsted, A. Krapp, K. Kristensen, A. Ligabue,
       O. B. Lutnaes, J. I. Melo, K. V. Mikkelsen, R. H. Myhre,
       C. Neiss, C. B. Nielsen, P. Norman, J. Olsen,
       J. M. H. Olsen, A. Osted, M. J. Packer, F. Pawlowski,
       T. B. Pedersen, P. F. Provasi, S. Reine, Z. Rinkevicius,
       T. A. Ruden, K. Ruud, V. Rybkin, P. Salek, C. C. M. Samson,
       A. Sanchez de Meras, T. Saue, S. P. A. Sauer,
       B. Schimmelpfennig, K. Sneskov, A. H. Steindal,
       K. O. Sylvester-Hvid, P. R. Taylor, A. M. Teale,
       E. I. Tellgren, D. P. Tew, A. J. Thorvaldsen, L. Thoegersen,
       O. Vahtras, M. A. Watson, D. J. D. Wilson, M. Ziolkowski
       and H. Agren,
       "The Dalton quantum chemistry program system",
       WIREs Comput. Mol. Sci. 2014, 4:269-284 (doi: 10.1002/wcms.1172)
     
    and
     
       Dalton, a molecular electronic structure program,
       Release Dalton2025.0-dev (2025), see http://daltonprogram.org
   ----------------------------------------------------------------------------

    Authors in alphabetical order (Major contribution(s) in parenthesis):

  Kestutis Aidas,              Vilnius University,        Lithuania   (QM/MM)
  Celestino Angeli,            University of Ferrara,     Italy       (NEVPT2)
  Juan J. Aucar,               Northeast National UniversiArgentina   (LRESC, Relativistic Effects on NMR Shieldings and EFG)
  Keld L. Bak,                 UNI-C,                     Denmark     (AOSOPPA, non-adiabatic coupling, magnetic properties)
  Vebjoern Bakken,             University of Oslo,        Norway      (DALTON; geometry optimizer, symmetry detection)
  Radovan Bast,                UiT The Arctic U. of NorwayNorway      (DALTON installation and execution frameworks)
  Pablo Baudin,                University of Valencia,    Spain       (Cholesky excitation energies)
  Linus Boman,                 NTNU,                      Norway      (Cholesky decomposition and subsystems)
  Bruno N. Cabral Tenorio,     Technical Univ. of Denmark,Denmark     (Lanczos-based CC methods)
  Ove Christiansen,            Aarhus University,         Denmark     (CC module)
  Renzo Cimiraglia,            University of Ferrara,     Italy       (NEVPT2)
  Sonia Coriani,               Technical Univ. of Denmark,Denmark     (CC and RESPONS modules)
  Janusz Cukras,               University of Warsaw,      Poland      (MChD in RESPONS)
  Paal Dahle,                  University of Oslo,        Norway      (Parallelization)
  Erik K. Dalskov,             UNI-C,                     Denmark     (SOPPA)
  Thomas Enevoldsen,           Univ. of Southern Denmark, Denmark     (SOPPA)
  Janus J. Eriksen,            Aarhus University,         Denmark     (Polarizable embedding, TDA)
  Rasmus Faber,                Technical Univ. of Denmark,Denmark     (Vib.avg. NMR w. SOPPA, parallel AO-SOPPA, CVS-CC and EOMCC)
  Tobias Fahleson,             KTH Stockholm,             Sweden      (Damped cubic response)
  Berta Fernandez,             U. of Santiago de CompostelSpain       (Doublet spin, ESR in RESPONS)
  Lara Ferrighi,               Aarhus University,         Denmark     (PCM Cubic response)
  Heike Fliegl,                University of Oslo,        Norway      (CCSD(R12))
  Luca Frediani,               UiT The Arctic U. of NorwayNorway      (PCM)
  Emmanuel Fromager,           Univ. Strasbourg,          France      (MC-srDFT)
  Bin Gao,                     UiT The Arctic U. of NorwayNorway      (Gen1Int library)
  Andre S. P. Gomes,           CNRS/Universite de Lille,  France      (Frozen density embedding)
  Christof Haettig,            Ruhr-University Bochum,    Germany     (CC module)
  Kasper Hald,                 Aarhus University,         Denmark     (CC module)
  Asger Halkier,               Aarhus University,         Denmark     (CC module)
  Frederik Beyer Hansen,       University of Copenhagen,  Denmark     (Parallel AO-SOPPA)
  Erik D. Hedegaard,           Univ. of Southern Denmark, Denmark     (Polarizable embedding, QM/MM, and MC-srDFT)
  Hanne Heiberg,               University of Oslo,        Norway      (Geometry analysis, selected one-electron integrals)
  Trygve Helgaker,             University of Oslo,        Norway      (DALTON; ABACUS, ERI, DFT modules, London, and much more)
  Alf Christian Hennum,        University of Oslo,        Norway      (Parity violation)
  Hinne Hettema,               University of Auckland,    New Zealand (Quadratic response in RESPONS; SIRIUS supersymmetry)
  Andreas E. Hillers-Bendtsen, University of Copenhagen,  Denmark     (MP3)
  Eirik Hjertenaes,            NTNU,                      Norway      (Cholesky decomposition)
  Nicolai Machholdt Hoeyer,    Aarhus University,         Denmark     (MP3)
  Pi A. B. Haase,              University of Copenhagen,  Denmark     (Triplet AO-SOPPA)
  Maria Francesca Iozzi,       University of Oslo,        Norway      (RPA)
  Christoph Jacob,             TU Braunschweig            Germany     (Frozen density embedding)
  Brano Jansik,                Technical Univ. of Ostrava Czech Rep.  (DFT cubic response)
  Hans Joergen Aa. Jensen,     Univ. of Southern Denmark, Denmark     (DALTON; SIRIUS, RESPONS, ABACUS, MC-srDFT, and much more)
  Dan Jonsson,                 UiT The Arctic U. of NorwayNorway      (Cubic response in RESPONS module)
  Poul Joergensen,             Aarhus University,         Denmark     (RESPONS, ABACUS, and CC modules)
  Maciej Kaminski,             University of Warsaw,      Poland      (CPPh in RESPONS)
  Joanna Kauczor,              Linkoeping University,     Sweden      (Complex polarization propagator (CPP) module)
  Sheela Kirpekar,             Univ. of Southern Denmark, Denmark     (Mass-velocity & Darwin integrals)
  Frederik Oersted Kjeldal,    Technical Univ. of Denmark,Denmark     (MP3)
  Erik Kjellgren,              Univ. of Southern Denmark, Denmark     (MC-srDFT)
  Wim Klopper,                 KIT Karlsruhe,             Germany     (R12 code in CC, SIRIUS, and ABACUS modules)
  Stefan Knecht,               ETH Zurich,                Switzerland (Parallel CI and MCSCF, MC-srDFT)
  Rika Kobayashi,              Australian National Univ., Australia   (DIIS in CC, London in MCSCF)
  Henrik Koch,                 NTNU,                      Norway      (CC module, Cholesky decomposition)
  Jacob Kongsted,              Univ. of Southern Denmark, Denmark     (Polarizable embedding, polarizable density embedding, QM/MM)
  Andrea Ligabue,              University of Modena,      Italy       (CTOCD, AOSOPPA)
  Nanna H. List,               Univ. of Southern Denmark, Denmark     (Polarizable embedding)
  Ola B. Lutnaes,              University of Oslo,        Norway      (DFT Hessian)
  Juan I. Melo,                University of Buenos Aires,Argentina   (LRESC, Relativistic Effects on NMR Shieldings)
  Kurt V. Mikkelsen,           University of Copenhagen,  Denmark     (MC-SCRF, QM/MM, and MP3)
  Rolf H. Myhre,               NTNU,                      Norway      (Subsystems and CC3)
  Christian Neiss,             Univ. Erlangen-Nuernberg,  Germany     (CCSD(R12))
  Christian B. Nielsen,        University of Copenhagen,  Denmark     (QM/MM)
  Patrick Norman,              KTH Stockholm,             Sweden      (Cubic response and complex frequency response in RESPONS)
  Jeppe Olsen,                 Aarhus University,         Denmark     (SIRIUS CI/density modules)
  Jogvan Magnus H. Olsen,      Aarhus University,         Denmark     (Polarizable embedding and polarizable density embedding)
  Anders Osted,                Copenhagen University,     Denmark     (QM/MM)
  Martin J. Packer,            University of Sheffield,   UK          (SOPPA)
  Filip Pawlowski,             Kazimierz Wielki UniversityPoland      (CC3)
  Morten N. Pedersen,          Univ. of Southern Denmark, Denmark     (Polarizable embedding)
  Thomas B. Pedersen,          University of Oslo,        Norway      (Cholesky decomposition)
  Patricio F. Provasi,         University of Northeastern,Argentina   (Analysis of coupling constants in localized orbitals)
  Peter Reinholdt,             Univ. of Southern Denmark, Denmark     (Polarizable embedding and polarizable density embedding)
  Zilvinas Rinkevicius,        KTH Stockholm,             Sweden      (open-shell DFT, ESR)
  Elias Rudberg,               KTH Stockholm,             Sweden      (DFT grid and basis info)
  Torgeir A. Ruden,            University of Oslo,        Norway      (Numerical derivatives in ABACUS)
  Kenneth Ruud,                UiT The Arctic U. of NorwayNorway      (DALTON; ABACUS magnetic properties and much more)
  Pawel Salek,                 KTH Stockholm,             Sweden      (DALTON; DFT code)
  Claire C. M. Samson,         University of Karlsruhe    Germany     (Boys localization, r12 integrals in ERI)
  Alfredo Sanchez de Meras,    University of Valencia,    Spain       (CC module, Cholesky decomposition)
  Trond Saue,                  Paul Sabatier University,  France      (direct Fock matrix construction)
  Stephan P. A. Sauer,         University of Copenhagen,  Denmark     (SOPPA(CCSD), SOPPA prop., AOSOPPA, vibrational g-factors)
  Bernd Schimmelpfennig,       Forschungszentrum KarlsruheGermany     (AMFI module)
  Anna K. Schnack-Petersen,    University of Copenhagen,  Denmark     (RPA(D) and HRPA(D) properties in AOSOPPA)
  Kristian Sneskov,            Aarhus University,         Denmark     (Polarizable embedding, QM/MM)
  Arnfinn H. Steindal,         UiT The Arctic U. of NorwayNorway      (parallel QM/MM, polarizable embedding)
  Casper Steinmann,            Aalborg University,        Denmark     (QFIT, polarizable embedding)
  K. O. Sylvester-Hvid,        University of Copenhagen,  Denmark     (MC-SCRF)
  Peter R. Taylor,             VLSCI/Univ. of Melbourne,  Australia   (Symmetry handling ABACUS, integral transformation)
  Andrew M. Teale,             University of Nottingham,  England     (DFT-AC, DFT-D)
  David P. Tew,                University of Bristol,     England     (CCSD(R12))
  Julien Toulouse,             Sorbonne Univ.,            France      (MC-srDFT)
  Olav Vahtras,                KTH Stockholm,             Sweden      (Triplet response, spin-orbit, ESR, TDDFT, open-shell DFT)
  Lucas Visscher,              Vrije Universiteit AmsterdaNetherlands (Frozen density embedding)
  David J. Wilson,             La Trobe University,       Australia   (DFT Hessian and DFT magnetizabilities)
  Luna Zamok,                  University of Copenhagen,  Denmark     (Block Lanczos RPA solver in SOPPA module)
  Hans Agren,                  KTH Stockholm,             Sweden      (SIRIUS module, RESPONS, MC-SCRF solvation)
 --------------------------------------------------------------------------------

     Date and time (Linux)  : Mon May  4 21:54:03 2026
     Host name              : debian                                  

 * Work memory size             :    64000000 =  488.28 megabytes.

 * Directories for basis set searches:
   1) /home/vdwv/DIPLOM_ITMO/CALCULATIONS_AND_SOFTS/softwares/Dalton_Shenanigans/dalton/dalton/build
   2) /home/vdwv/DIPLOM_ITMO/CALCULATIONS_AND_SOFTS/softwares/Dalton_Shenanigans/dalton/dalton/build/basis


Compilation information
-----------------------

 Who compiled             | vdwv
 Host                     | debian
 System                   | Linux-6.12.73+deb13-amd64
 CMake generator          | Unix Makefiles
 Processor                | x86_64
 64-bit integers          | OFF
 MPI                      | OFF
 Fortran compiler         | /usr/bin/gfortran
 Fortran compiler version | GNU Fortran (Debian 14.2.0-19) 14.2.0
 C compiler               | /usr/bin/gcc
 C compiler version       | gcc (Debian 14.2.0-19) 14.2.0
 C++ compiler             | /usr/bin/g++
 C++ compiler version     | g++ (Debian 14.2.0-19) 14.2.0
 BLAS                     | /opt/intel/oneapi/mkl/2025.3/lib/intel64/libmkl_gf
                          | _lp64.so;/opt/intel/oneapi/mkl/2025.3/lib/intel64/
                          | libmkl_sequential.so;/opt/intel/oneapi/mkl/2025.3/
                          | lib/intel64/libmkl_core.so;/usr/lib/x86_64-linux-g
                          | nu/libpthread.a;/usr/lib/x86_64-linux-gnu/libm.so
 LAPACK                   | /opt/intel/oneapi/mkl/2025.3/lib/intel64/libmkl_la
                          | pack95_lp64.a;/opt/intel/oneapi/mkl/2025.3/lib/int
                          | el64/libmkl_gf_lp64.so
 Static linking           | OFF
 Last Git revision        | 1892235f9264b9be21ec2fefe6e0081d659ab244
 Git branch               | master
 Configuration time       | 2026-05-04 17:50:26.788788

 * Sequential calculation.


   Content of the .dal input file
 ----------------------------------

BASIS
STO-3G
Benzene C6H6 using the STO-3G basis
Using automatic symmetry detection
AtomTypes=2 Angstrom
Charge=6.0 Atoms=6
C1    0.000      1.387      0.000
C2    1.201      0.693      0.000
C3    1.201     -0.693      0.000
C4    0.000     -1.387      0.000
C5   -1.201     -0.693      0.000
C6   -1.201      0.693      0.000
Charge=1.0 Atoms=6
H7    0.000      2.469      0.000
H8    2.139      1.235      0.000
H9    2.139     -1.235      0.000
H10   0.000     -2.469      0.000
H11  -2.139     -1.235      0.000
H12  -2.139      1.235      0.000

**DALTON INPUT
.RUN WAVE FUN
**WAVE FUN
.HF
**END OF


       *******************************************************************
       *********** Output from DALTON general input processing ***********
       *******************************************************************

 --------------------------------------------------------------------------------
   Overall default print level:    0
   Print level for DALTON.STAT:    1

    HERMIT 1- and 2-electron integral sections will be executed
    "Old" integral transformation used (limited to max 255 basis functions)
    Wave function sections will be executed (SIRIUS module)
 --------------------------------------------------------------------------------


   ****************************************************************************
   *************** Output of molecule and basis set information ***************
   ****************************************************************************


    The two title cards from your ".mol" input:
    --------------------------------------------------------------------------------
 1: Benzene C6H6 using the STO-3G basis
 2: Using automatic symmetry detection
    --------------------------------------------------------------------------------

  Coordinates are entered in Angstrom and converted to atomic units.
          - Conversion factor : 1 bohr = 0.52917721080 A

  Atomic type no.    1
  --------------------
  Nuclear charge:   6.00000
  Number of symmetry independent centers:    6
  Number of basis sets to read;    2
  Basis set file used for this atomic type with Z =   6 :
     "/home/vdwv/DIPLOM_ITMO/CALCULATIONS_AND_SOFTS/softwares/Dalton_Shenanigans/dalton/dalton/build/basis/STO-3G"

  Atomic type no.    2
  --------------------
  Nuclear charge:   1.00000
  Number of symmetry independent centers:    6
  Number of basis sets to read;    2
  Basis set file used for this atomic type with Z =   1 :
     "/home/vdwv/DIPLOM_ITMO/CALCULATIONS_AND_SOFTS/softwares/Dalton_Shenanigans/dalton/dalton/build/basis/STO-3G"


                      SYMADD: Addition of symmetry requested
                      --------------------------------------

 Symmetry test threshold:  5.00E-06

@  The molecule has been centered at center of mass and rotated
@  so the principal axes of inertia are along coordinate axes.

 Symmetry class found: D(2h)          

 Symmetry Independent Centres             
 ----------------------------
C6     6 :      1.30958020     2.26956108     0.00000000  Isotope  1
C1     6 :      2.62105014     0.00000000     0.00000000  Isotope  1
H7     1 :      4.66573380     0.00000000     0.00000000  Isotope  1
H12    1 :      2.33381176     4.04212418     0.00000000  Isotope  1

 The following symmetry elements were found:   X  Y  Z  


                         SYMGRP: Point group information
                         -------------------------------

@    Full point group is: D(2h)          
@    Represented as:      D2h

@  * The irrep name for each symmetry:    1: Ag     2: B3u    3: B2u    4: B1g    5: B1u    6: B2g    7: B3g    8: Au 


   * The point group was generated by:

      Reflection in the yz-plane
      Reflection in the xz-plane
      Reflection in the xy-plane

   * Group multiplication table

        |  E   C2z  C2y  C2x   i   Oxy  Oxz  Oyz
   -----+----------------------------------------
     E  |  E   C2z  C2y  C2x   i   Oxy  Oxz  Oyz
    C2z | C2z   E   C2x  C2y  Oxy   i   Oyz  Oxz
    C2y | C2y  C2x   E   C2z  Oxz  Oyz   i   Oxy
    C2x | C2x  C2y  C2z   E   Oyz  Oxz  Oxy   i 
     i  |  i   Oxy  Oxz  Oyz   E   C2z  C2y  C2x
    Oxy | Oxy   i   Oyz  Oxz  C2z   E   C2x  C2y
    Oxz | Oxz  Oyz   i   Oxy  C2y  C2x   E   C2z
    Oyz | Oyz  Oxz  Oxy   i   C2x  C2y  C2z   E 

   * Character table

        |  E   C2z  C2y  C2x   i   Oxy  Oxz  Oyz
   -----+----------------------------------------
    Ag  |   1    1    1    1    1    1    1    1
    B3u |   1   -1   -1    1   -1    1    1   -1
    B2u |   1   -1    1   -1   -1    1   -1    1
    B1g |   1    1   -1   -1    1    1   -1   -1
    B1u |   1    1   -1   -1   -1   -1    1    1
    B2g |   1   -1    1   -1    1   -1    1   -1
    B3g |   1   -1   -1    1    1   -1   -1    1
    Au  |   1    1    1    1   -1   -1   -1   -1

   * Direct product table

        | Ag   B3u  B2u  B1g  B1u  B2g  B3g  Au 
   -----+----------------------------------------
    Ag  | Ag   B3u  B2u  B1g  B1u  B2g  B3g  Au 
    B3u | B3u  Ag   B1g  B2u  B2g  B1u  Au   B3g
    B2u | B2u  B1g  Ag   B3u  B3g  Au   B1u  B2g
    B1g | B1g  B2u  B3u  Ag   Au   B3g  B2g  B1u
    B1u | B1u  B2g  B3g  Au   Ag   B3u  B2u  B1g
    B2g | B2g  B1u  Au   B3g  B3u  Ag   B1g  B2u
    B3g | B3g  Au   B1u  B2g  B2u  B1g  Ag   B3u
    Au  | Au   B3g  B2g  B1u  B1g  B2u  B3u  Ag 


                                 Isotopic Masses
                                 ---------------

                           C1  _1     12.000000
                           C1  _2     12.000000
                           C6  _1     12.000000
                           C6  _2     12.000000
                           C6  _3     12.000000
                           C6  _4     12.000000
                           H7  _1      1.007825
                           H7  _2      1.007825
                           H12 _1      1.007825
                           H12 _2      1.007825
                           H12 _3      1.007825
                           H12 _4      1.007825

                       Total mass:    78.046950 amu
                       Natural abundance:  93.495 %

 Center-of-mass coordinates (a.u.):    0.000000    0.000000    0.000000
 Center-of-mass coordinates (Angs):    0.000000    0.000000    0.000000


  Atoms and basis sets
  --------------------

  Number of atom types :    2
  Total number of atoms:   12

  Basis set used is "STO-3G" from the basis set library.

  label    atoms   charge   prim   cont     basis
  ----------------------------------------------------------------------
  C6          6    6.0000    15     5      [6s3p|2s1p]                                        
  H1          6    1.0000     3     1      [3s|1s]                                            
  ----------------------------------------------------------------------
  total:     12   42.0000   108    36
  ----------------------------------------------------------------------

  Threshold for neglecting AO integrals:  1.00D-12


  Cartesian Coordinates (bohr)
  ----------------------------

  Total number of coordinates:   36
  C1  / 1 :     1  x   2.6210501354    2  y   0.0000000000    3  z   0.0000000000
  C1  / 2 :     4  x  -2.6210501354    5  y   0.0000000000    6  z   0.0000000000
  C6  / 1 :     7  x   1.3095802046    8  y   2.2695610761    9  z   0.0000000000
  C6  / 2 :    10  x  -1.3095802046   11  y   2.2695610761   12  z   0.0000000000
  C6  / 3 :    13  x   1.3095802046   14  y  -2.2695610761   15  z   0.0000000000
  C6  / 4 :    16  x  -1.3095802046   17  y  -2.2695610761   18  z   0.0000000000
  H7  / 1 :    19  x   4.6657338026   20  y   0.0000000000   21  z   0.0000000000
  H7  / 2 :    22  x  -4.6657338026   23  y   0.0000000000   24  z   0.0000000000
  H12 / 1 :    25  x   2.3338117644   26  y   4.0421241814   27  z   0.0000000000
  H12 / 2 :    28  x  -2.3338117644   29  y   4.0421241814   30  z   0.0000000000
  H12 / 3 :    31  x   2.3338117644   32  y  -4.0421241814   33  z   0.0000000000
  H12 / 4 :    34  x  -2.3338117644   35  y  -4.0421241814   36  z   0.0000000000


  Cartesian Coordinates (xyz format; angstrom)
  --------------------------------------------

   12

  C        1.3870000000            0.0000000000            0.0000000000
  C       -1.3870000000            0.0000000000            0.0000000000
  C        0.6930000000            1.2010000000            0.0000000000
  C       -0.6930000000            1.2010000000            0.0000000000
  C        0.6930000000           -1.2010000000            0.0000000000
  C       -0.6930000000           -1.2010000000            0.0000000000
  H        2.4690000000            0.0000000000            0.0000000000
  H       -2.4690000000            0.0000000000            0.0000000000
  H        1.2350000000            2.1390000000            0.0000000000
  H       -1.2350000000            2.1390000000            0.0000000000
  H        1.2350000000           -2.1390000000            0.0000000000
  H       -1.2350000000           -2.1390000000            0.0000000000


  Symmetry Coordinates
  --------------------

  Number of coordinates in each symmetry:     6    6    6    6    4    4    2    2

  Symmetry  Ag  ( 1)

    1   C1    x    [  1  -    4 ]/2
    2   C6    x    [  7  -   10  +   13  -   16 ]/4
    3   C6    y    [  8  +   11  -   14  -   17 ]/4
    4   H7    x    [ 19  -   22 ]/2
    5   H12   x    [ 25  -   28  +   31  -   34 ]/4
    6   H12   y    [ 26  +   29  -   32  -   35 ]/4

  Symmetry  B3u ( 2)

    7   C1    x    [  1  +    4 ]/2
    8   C6    x    [  7  +   10  +   13  +   16 ]/4
    9   C6    y    [  8  -   11  -   14  +   17 ]/4
   10   H7    x    [ 19  +   22 ]/2
   11   H12   x    [ 25  +   28  +   31  +   34 ]/4
   12   H12   y    [ 26  -   29  -   32  +   35 ]/4

  Symmetry  B2u ( 3)

   13   C1    y    [  2  +    5 ]/2
   14   C6    x    [  7  -   10  -   13  +   16 ]/4
   15   C6    y    [  8  +   11  +   14  +   17 ]/4
   16   H7    y    [ 20  +   23 ]/2
   17   H12   x    [ 25  -   28  -   31  +   34 ]/4
   18   H12   y    [ 26  +   29  +   32  +   35 ]/4

  Symmetry  B1g ( 4)

   19   C1    y    [  2  -    5 ]/2
   20   C6    x    [  7  +   10  -   13  -   16 ]/4
   21   C6    y    [  8  -   11  +   14  -   17 ]/4
   22   H7    y    [ 20  -   23 ]/2
   23   H12   x    [ 25  +   28  -   31  -   34 ]/4
   24   H12   y    [ 26  -   29  +   32  -   35 ]/4

  Symmetry  B1u ( 5)

   25   C1    z    [  3  +    6 ]/2
   26   C6    z    [  9  +   12  +   15  +   18 ]/4
   27   H7    z    [ 21  +   24 ]/2
   28   H12   z    [ 27  +   30  +   33  +   36 ]/4

  Symmetry  B2g ( 6)

   29   C1    z    [  3  -    6 ]/2
   30   C6    z    [  9  -   12  +   15  -   18 ]/4
   31   H7    z    [ 21  -   24 ]/2
   32   H12   z    [ 27  -   30  +   33  -   36 ]/4

  Symmetry  B3g ( 7)

   33   C6    z    [  9  +   12  -   15  -   18 ]/4
   34   H12   z    [ 27  +   30  -   33  -   36 ]/4

  Symmetry  Au  ( 8)

   35   C6    z    [  9  -   12  -   15  +   18 ]/4
   36   H12   z    [ 27  -   30  -   33  +   36 ]/4


   Interatomic separations (in Angstrom):
   --------------------------------------

            C1  _1      C1  _2      C6  _1      C6  _2      C6  _3      C6  _4
            ------      ------      ------      ------      ------      ------
 C1  _1:    0.000000
 C1  _2:    2.774000    0.000000
 C6  _1:    1.387097    2.401833    0.000000
 C6  _2:    2.401833    1.387097    1.386000    0.000000
 C6  _3:    1.387097    2.401833    2.402000    2.773193    0.000000
 C6  _4:    2.401833    1.387097    2.773193    2.402000    1.386000    0.000000
 H7  _1:    1.082000    3.856000    2.143963    3.382402    2.143963    3.382402
 H7  _2:    3.856000    1.082000    3.382402    2.143963    3.382402    2.143963
 H12 _1:    2.144394    3.383815    1.083332    2.144068    3.383691    3.856525
 H12 _2:    3.383815    2.144394    2.144068    1.083332    3.856525    3.383691
 H12 _3:    2.144394    3.383815    3.383691    3.856525    1.083332    2.144068
 H12 _4:    3.383815    2.144394    3.856525    3.383691    2.144068    1.083332

            H7  _1      H7  _2      H12 _1      H12 _2      H12 _3      H12 _4
            ------      ------      ------      ------      ------      ------
 H7  _1:    0.000000
 H7  _2:    4.938000    0.000000
 H12 _1:    2.469428    4.277258    0.000000
 H12 _2:    4.277258    2.469428    2.470000    0.000000
 H12 _3:    2.469428    4.277258    4.278000    4.939857    0.000000
 H12 _4:    4.277258    2.469428    4.939857    4.278000    2.470000    0.000000


  Max    interatomic separation is    4.9399 Angstrom (    9.3350 Bohr)
  between atoms   11 and   10, "H12 _3" and "H12 _2".

  Min HX interatomic separation is    1.0820 Angstrom (    2.0447 Bohr)

  Min YX interatomic separation is    1.3860 Angstrom (    2.6192 Bohr)


  Bond distances (Angstrom):
  --------------------------

                  atom 1     atom 2       distance
                  ------     ------       --------
  bond distance:  C6  _1     C1  _1       1.387097
  bond distance:  C6  _2     C1  _2       1.387097
  bond distance:  C6  _2     C6  _1       1.386000
  bond distance:  C6  _3     C1  _1       1.387097
  bond distance:  C6  _4     C1  _2       1.387097
  bond distance:  C6  _4     C6  _3       1.386000
  bond distance:  H7  _1     C1  _1       1.082000
  bond distance:  H7  _2     C1  _2       1.082000
  bond distance:  H12 _1     C6  _1       1.083332
  bond distance:  H12 _2     C6  _2       1.083332
  bond distance:  H12 _3     C6  _3       1.083332
  bond distance:  H12 _4     C6  _4       1.083332


  Bond angles (degrees):
  ----------------------

                  atom 1     atom 2     atom 3         angle
                  ------     ------     ------         -----
  bond angle:     C6  _1     C1  _1     C6  _3       119.957
  bond angle:     C6  _1     C1  _1     H7  _1       120.022
  bond angle:     C6  _3     C1  _1     H7  _1       120.022
  bond angle:     C6  _2     C1  _2     C6  _4       119.957
  bond angle:     C6  _2     C1  _2     H7  _2       120.022
  bond angle:     C6  _4     C1  _2     H7  _2       120.022
  bond angle:     C1  _1     C6  _1     C6  _2       120.022
  bond angle:     C1  _1     C6  _1     H12 _1       119.958
  bond angle:     C6  _2     C6  _1     H12 _1       120.020
  bond angle:     C1  _2     C6  _2     C6  _1       120.022
  bond angle:     C1  _2     C6  _2     H12 _2       119.958
  bond angle:     C6  _1     C6  _2     H12 _2       120.020
  bond angle:     C1  _1     C6  _3     C6  _4       120.022
  bond angle:     C1  _1     C6  _3     H12 _3       119.958
  bond angle:     C6  _4     C6  _3     H12 _3       120.020
  bond angle:     C1  _2     C6  _4     C6  _3       120.022
  bond angle:     C1  _2     C6  _4     H12 _4       119.958
  bond angle:     C6  _3     C6  _4     H12 _4       120.020




 Principal moments of inertia (u*A**2) and principal axes
 --------------------------------------------------------

   IA      87.658371          0.000000    1.000000    0.000000
   IB      87.679740          1.000000    0.000000    0.000000
   IC     175.338111          0.000000    0.000000    1.000000


 Rotational constants
 --------------------

@    The molecule is planar.

               A                   B                   C

           5765.3251           5763.9200           2882.3112 MHz
            0.192311            0.192264            0.096144 cm-1


@  Nuclear repulsion energy :  204.533289106373 Hartree


  Symmetry Orbitals
  -----------------

  Number of orbitals in each symmetry:           9    9    6    6    2    2    1    1


  Symmetry  Ag ( 1)

    1     C1       1s         1 +    2
    2     C1       1s         3 +    4
    3     C1       2px        5 -    6
    4     C6       1s        11 +   12 +   13 +   14
    5     C6       1s        15 +   16 +   17 +   18
    6     C6       2px       19 -   20 +   21 -   22
    7     C6       2py       23 +   24 -   25 -   26
    8     H7       1s        31 +   32
    9     H12      1s        33 +   34 +   35 +   36


  Symmetry  B3u( 2)

   10     C1       1s         1 -    2
   11     C1       1s         3 -    4
   12     C1       2px        5 +    6
   13     C6       1s        11 -   12 +   13 -   14
   14     C6       1s        15 -   16 +   17 -   18
   15     C6       2px       19 +   20 +   21 +   22
   16     C6       2py       23 -   24 -   25 +   26
   17     H7       1s        31 -   32
   18     H12      1s        33 -   34 +   35 -   36


  Symmetry  B2u( 3)

   19     C1       2py        7 +    8
   20     C6       1s        11 +   12 -   13 -   14
   21     C6       1s        15 +   16 -   17 -   18
   22     C6       2px       19 -   20 -   21 +   22
   23     C6       2py       23 +   24 +   25 +   26
   24     H12      1s        33 +   34 -   35 -   36


  Symmetry  B1g( 4)

   25     C1       2py        7 -    8
   26     C6       1s        11 -   12 -   13 +   14
   27     C6       1s        15 -   16 -   17 +   18
   28     C6       2px       19 +   20 -   21 -   22
   29     C6       2py       23 -   24 +   25 -   26
   30     H12      1s        33 -   34 -   35 +   36


  Symmetry  B1u( 5)

   31     C1       2pz        9 +   10
   32     C6       2pz       27 +   28 +   29 +   30


  Symmetry  B2g( 6)

   33     C1       2pz        9 -   10
   34     C6       2pz       27 -   28 +   29 -   30


  Symmetry  B3g( 7)

   35     C6       2pz       27 +   28 -   29 -   30


  Symmetry  Au ( 8)

   36     C6       2pz       27 -   28 -   29 +   30

  Symmetries of electric field:  B3u(2)  B2u(3)  B1u(5)

  Symmetries of magnetic field:  B3g(7)  B2g(6)  B1g(4)


                     .---------------------------------------.
                     | Starting in Integral Section (HERMIT) |
                     `---------------------------------------'



 ***************************************************************************************
 ****************** Output from **INTEGRALS input processing (HERMIT) ******************
 ***************************************************************************************


 - Using defaults, no **INTEGRALS input found

 Default print level:        1

 Calculation of one- and two-electron Hamiltonian integrals.

 Center of mass  (bohr):      0.000000000000      0.000000000000      0.000000000000
 Operator center (bohr):      0.000000000000      0.000000000000      0.000000000000
 Gauge origin    (bohr):      0.000000000000      0.000000000000      0.000000000000
 Dipole origin   (bohr):      0.000000000000      0.000000000000      0.000000000000

Calculation of 2-electron integrals are postponed until they are needed.


     ************************************************************************
     ************************** Output from HERINT **************************
     ************************************************************************



                      Nuclear contribution to dipole moments
                      --------------------------------------

                    All dipole components are zero by symmetry


  Total CPU  time used in HERMIT:   0.02 seconds
  Total wall time used in HERMIT:   0.02 seconds


                        .----------------------------------.
                        | End of Integral Section (HERMIT) |
                        `----------------------------------'



                   .--------------------------------------------.
                   | Starting in Wave Function Section (SIRIUS) |
                   `--------------------------------------------'


 *** Output from Huckel module :

     Using EWMO model:          F
     Using EHT  model:          T
     Number of Huckel orbitals each symmetry:    9    9    6    6    2    2    1    1

 Huckel EHT eigenvalues for symmetry :  1
          -11.417119     -11.378172      -1.577893      -0.876015      -0.789046
           -0.413997      -0.215054      -0.210342      -0.176872

 Huckel EHT eigenvalues for symmetry :  2
          -11.396906     -11.363128      -1.220398      -0.624183      -0.531153
           -0.235438      -0.202846      -0.165687      -0.159981

 Huckel EHT eigenvalues for symmetry :  3
          -11.396891      -1.220361      -0.531275      -0.491047      -0.203033
           -0.165808

 Huckel EHT eigenvalues for symmetry :  4
          -11.378150      -0.875846      -0.413867      -0.215104      -0.176845
           -0.163343

 Huckel EHT eigenvalues for symmetry :  5
           -0.709019      -0.288050

 Huckel EHT eigenvalues for symmetry :  6
           -0.459478      -0.237308

 Huckel EHT eigenvalues for symmetry :  7
           -0.459648

 Huckel EHT eigenvalues for symmetry :  8
           -0.287896

 **********************************************************************
 *SIRIUS* a direct, restricted step, second order MCSCF program       *
 **********************************************************************

 
     Date and time (Linux)  : Mon May  4 21:54:03 2026
     Host name              : debian                                  

 Title lines from ".mol" input file:
     Benzene C6H6 using the STO-3G basis
     Using automatic symmetry detection

 Print level on unit LUPRI =   2 is   0
 Print level on unit LUW4  =   2 is   5

@    Restricted, closed shell Hartree-Fock calculation.

 Initial molecular orbitals are obtained according to
 ".MOSTART EHT   " input option

     Wave function specification
     ============================
@    Wave function type        --- HF ---
@    Number of closed shell electrons          42
@    Number of electrons in active shells       0
@    Total charge of the molecule               0

@    Spin multiplicity and 2 M_S                1         0
@    Total number of symmetries                 8 (point group: D2h)
@    Reference state symmetry                   1 (irrep name : Ag )

     Orbital specifications
     ======================
@    Abelian symmetry species          All |    1    2    3    4    5    6    7    8
@                                          |  Ag   B3u  B2u  B1g  B1u  B2g  B3g  Au 
                                       --- |  ---  ---  ---  ---  ---  ---  ---  ---
@    Total number of orbitals           36 |    9    9    6    6    2    2    1    1
@    Number of basis functions          36 |    9    9    6    6    2    2    1    1

      ** Automatic occupation of RHF orbitals **

      -- Initial occupation of symmetries is determined from extended Huckel guess.           
      -- Initial occupation of symmetries is :
@    Occupied SCF orbitals              21 |    6    5    4    3    1    1    1    0

     Maximum number of Fock   iterations      0
     Maximum number of DIIS   iterations     60
     Maximum number of QC-SCF iterations     60
     Threshold for SCF convergence     1.00D-05


 ***********************************************
 ***** DIIS acceleration of SCF iterations *****
 ***********************************************

 C1-DIIS algorithm; max error vectors =    8

 Automatic occupation of symmetries with  42 electrons.

 Iter     Total energy    Error norm  Delta(E)    SCF occupation
 -----------------------------------------------------------------------------

Calculating AOSUPINT

---> (Re)generating AOTWOINT


     ************************************************************************
     ************************** Output from HERINT **************************
     ************************************************************************


***  INFO  GETGAB: GABSO--- not found on AOGABINT. Regenerating.

 Threshold for neglecting two-electron integrals:  1.00D-12
 HERMIT - Number of two-electron integrals written:       34187 ( 15.4% )
 HERMIT - Megabytes written:                              0.412

  Time used in TWOINT     is       0.12 seconds
  CPU  time used in MAKE_AOTWOINT is   0.12 seconds
  WALL time used in MAKE_AOTWOINT is   0.12 seconds
     (Precalculated AO two-electron integrals are transformed to P-supermatrix elements.
      Threshold for discarding integrals :  1.00D-12 )

@  1  -227.664602904       2.94D+00  -2.28D+02     6   5   4   3   1   1   1   0
      Virial theorem: -V/T =      2.002195
@    MULPOP   C1  _1  0.16; C1  _2  0.16; C6  _1  0.16; C6  _2  0.16; C6  _3  0.16; C6  _4  0.16; H7  _1 -0.16; H7  _2 -0.16; H12 _1 -0.16; H12 _2 -0.16; 
@             H12 _3 -0.16; H12 _4 -0.16; 
   1  Level shift: doubly occupied orbital energies shifted by -2.00D-01
 -----------------------------------------------------------------------------
@  2  -227.887053869       2.73D-01  -2.22D-01     6   5   4   3   1   1   1   0
      Virial theorem: -V/T =      2.007997
@    MULPOP   C1  _1 -0.04; C1  _2 -0.04; C6  _1 -0.04; C6  _2 -0.04; C6  _3 -0.04; C6  _4 -0.04; H7  _1  0.04; H7  _2  0.04; H12 _1  0.04; H12 _2  0.04; 
@             H12 _3  0.04; H12 _4  0.04; 
   2  Level shift: doubly occupied orbital energies shifted by -5.00D-02
 -----------------------------------------------------------------------------
@  3  -227.891266266       2.81D-02  -4.21D-03     6   5   4   3   1   1   1   0
      Virial theorem: -V/T =      2.008148
@    MULPOP   C1  _1 -0.06; C1  _2 -0.06; C6  _1 -0.06; C6  _2 -0.06; C6  _3 -0.06; C6  _4 -0.06; H7  _1  0.06; H7  _2  0.06; H12 _1  0.06; H12 _2  0.06; 
@             H12 _3  0.06; H12 _4  0.06; 
   3  Level shift: doubly occupied orbital energies shifted by -1.25D-02
 -----------------------------------------------------------------------------
@  4  -227.891355299       2.36D-03  -8.90D-05     6   5   4   3   1   1   1   0
      Virial theorem: -V/T =      2.008096
@    MULPOP   C1  _1 -0.06; C1  _2 -0.06; C6  _1 -0.06; C6  _2 -0.06; C6  _3 -0.06; C6  _4 -0.06; H7  _1  0.06; H7  _2  0.06; H12 _1  0.06; H12 _2  0.06; 
@             H12 _3  0.06; H12 _4  0.06; 
 -----------------------------------------------------------------------------
@  5  -227.891355961       2.70D-04  -6.62D-07     6   5   4   3   1   1   1   0
      Virial theorem: -V/T =      2.008095
@    MULPOP   C1  _1 -0.06; C1  _2 -0.06; C6  _1 -0.06; C6  _2 -0.06; C6  _3 -0.06; C6  _4 -0.06; H7  _1  0.06; H7  _2  0.06; H12 _1  0.06; H12 _2  0.06; 
@             H12 _3  0.06; H12 _4  0.06; 
 -----------------------------------------------------------------------------
@  6  -227.891355968       6.95D-05  -6.95D-09     6   5   4   3   1   1   1   0
      Virial theorem: -V/T =      2.008095
@    MULPOP   C1  _1 -0.06; C1  _2 -0.06; C6  _1 -0.06; C6  _2 -0.06; C6  _3 -0.06; C6  _4 -0.06; H7  _1  0.06; H7  _2  0.06; H12 _1  0.06; H12 _2  0.06; 
@             H12 _3  0.06; H12 _4  0.06; 
 -----------------------------------------------------------------------------
@  7  -227.891355968       7.93D-06  -3.91D-10     6   5   4   3   1   1   1   0

@ *** DIIS converged in   7 iterations !
@     Converged SCF energy, gradient:   -227.891355968263    7.93D-06
    - total time used in SIRFCK :              0.00 seconds


 *** SCF orbital energy analysis ***

 Number of electrons        :   42
 Closed shell orbitals      :    6    5    4    3    1    1    1    0

 Sym       Hartree-Fock orbital energies

1 Ag    -11.02924598   -11.02884379    -1.09569608    -0.76915479    -0.66565198
         -0.43407369     0.57888719     0.74352418     0.88992963

2 B3u   -11.02924267   -11.02868637    -0.95803450    -0.59351992    -0.53605305
          0.65032827     0.72887874     0.90692723     1.16388959

3 B2u   -11.02926680    -0.95821266    -0.55728389    -0.53598996     0.64898043
          0.90569102

4 B1g   -11.02886113    -0.76871639    -0.43337247     0.74343459     0.89006100
          1.09955391

5 B1u    -0.46093127     0.27048619

6 B2g    -0.28246277     0.50916656

7 B3g    -0.28286544

8 Au      0.27108879

    E(LUMO) :     0.27048619 au (symmetry 5)
  - E(HOMO) :    -0.28246277 au (symmetry 6)
  ------------------------------------------
    gap     :     0.55294896 au

 --- Writing SIRIFC interface file

--------------------------------------------------------------------------------


     .--------------------------------------------------.
     | HF-SCF KT IPs [a.u. & eV] from Koopmans' theorem |
     `--------------------------------------------------'


     HF-SCF KT symmetry 1 ( Ag ) in point group D2h -- 6 principal poles with pole strength 1

   ============  ============  ============  ============  ============
      11.029246     11.028844      1.095696      0.769155      0.665652
     300.121050    300.110106     29.815407     20.929766     18.113312
   ============  ============  ============  ============  ============

   ============
       0.434074
      11.811746
   ============

     HF-SCF KT symmetry 2 ( B3u) in point group D2h -- 5 principal poles with pole strength 1

   ============  ============  ============  ============  ============
      11.029243     11.028686      0.958035      0.593520      0.536053
     300.120960    300.105822     26.069445     16.150499     14.586745
   ============  ============  ============  ============  ============

     HF-SCF KT symmetry 3 ( B2u) in point group D2h -- 4 principal poles with pole strength 1

   ============  ============  ============  ============
      11.029267      0.958213      0.557284      0.535990
     300.121616     26.074293     15.164466     14.585029
   ============  ============  ============  ============

     HF-SCF KT symmetry 4 ( B1g) in point group D2h -- 3 principal poles with pole strength 1

   ============  ============  ============
      11.028861      0.768716      0.433372
     300.110577     20.917837     11.792665
   ============  ============  ============

     HF-SCF KT symmetry 5 ( B1u) in point group D2h -- 1 principal poles with pole strength 1

   ============
       0.460931
      12.542578
   ============

     HF-SCF KT symmetry 6 ( B2g) in point group D2h -- 1 principal poles with pole strength 1

   ============
       0.282463
       7.686203
   ============

     HF-SCF KT symmetry 7 ( B3g) in point group D2h -- 1 principal poles with pole strength 1

   ============
       0.282865
       7.697160
   ============

@ Summary of HF-SCF KT ionization potentials [eV]:

@ Symmetry 1 (Ag ) :   300.121     300.110      29.815      20.930      18.113
@                       11.812

@ Symmetry 2 (B3u) :   300.121     300.106      26.069      16.150      14.587

@ Symmetry 3 (B2u) :   300.122      26.074      15.164      14.585

@ Symmetry 4 (B1g) :   300.111      20.918      11.793

@ Symmetry 5 (B1u) :    12.543

@ Symmetry 6 (B2g) :     7.686

@ Symmetry 7 (B3g) :     7.697

@ Symmetry 8 (Au ) :  No IPs in this symmetry

  === End of HF-SCF KT output ===
--------------------------------------------------------------------------------


 CPU and wall time for SCF :       0.122       0.122


                       .-----------------------------------.
                       | --- Final results from SIRIUS --- |
                       `-----------------------------------'


@    Spin multiplicity:           1
@    Spatial symmetry:            1 ( irrep  Ag  in D2h )
@    Total charge of molecule:    0

@    Final HF energy:            -227.891355968263                 
@    Nuclear repulsion:           204.533289106373
@    Electronic energy:          -432.424645074636

@    Final gradient norm:           0.000007932876

 
     Date and time (Linux)  : Mon May  4 21:54:03 2026
     Host name              : debian                                  

File label for MO orbitals:   4May26   FOCKDIIS

 (Only coefficients > 0.0100 are printed.)

 Molecular orbitals for symmetry species 1  (Ag )
 ------------------------------------------------

    Orbital         1        2        3        4        5        6        7
   1 C1  :1s     0.3806   0.5893  -0.1048   0.1143  -0.0092  -0.0075   0.0526
   2 C1  :1s     0.0081   0.0255   0.2634  -0.3352   0.0377   0.0154  -0.3347
   3 C1  :2px    0.0016  -0.0019  -0.0628  -0.0837   0.2340  -0.2829  -0.3134
   4 C6  :1s     0.4172  -0.2688  -0.1049  -0.0571  -0.0095   0.0038   0.0527
   5 C6  :1s     0.0097  -0.0122   0.2636   0.1674   0.0387  -0.0075  -0.3350
   6 C6  :2px    0.0009  -0.0024  -0.0316  -0.1543   0.1165   0.3207  -0.1581
   7 C6  :2py    0.0012   0.0026  -0.0544   0.1367   0.2030  -0.0216  -0.2737
   8 H7  :1s    -0.0026  -0.0041   0.0464  -0.1773   0.1746  -0.2989   0.5108
   9 H12 :1s    -0.0029   0.0019   0.0463   0.0881   0.1749   0.1497   0.5130

    Orbital         8        9
   1 C1  :1s    -0.1624  -0.0327
   2 C1  :1s     1.0586   0.2390
   3 C1  :2px   -0.0187  -0.8150
   4 C6  :1s     0.0811   0.0166
   5 C6  :1s    -0.5285  -0.1212
   6 C6  :2px   -0.3152   0.0226
   7 C6  :2py    0.1932   0.4556
   8 H7  :1s    -0.4860   0.5452
   9 H12 :1s     0.2419  -0.2702

 Molecular orbitals for symmetry species 2  (B3u)
 ------------------------------------------------

    Orbital         1        2        3        4        5        6        7
   1 C1  :1s     0.5621  -0.4197  -0.1469   0.0650   0.0270   0.0300   0.1198
   2 C1  :1s     0.0163  -0.0216   0.3942  -0.2179  -0.0846  -0.1966  -0.7560
   3 C1  :2px    0.0006   0.0025  -0.0286  -0.1666   0.3690  -0.5560  -0.0771
   4 C6  :1s     0.2971   0.3970  -0.0734  -0.0652   0.0130   0.0161  -0.1195
   5 C6  :1s     0.0090   0.0209   0.1970   0.2187  -0.0405  -0.1048   0.7537
   6 C6  :2px   -0.0028  -0.0012   0.0914   0.0824   0.0167  -0.3787   0.0340
   7 C6  :2py    0.0018  -0.0022  -0.0693   0.1414   0.2048  -0.1036   0.0628
   8 H7  :1s    -0.0037   0.0030   0.1083  -0.2338   0.2812   0.6551   0.4589
   9 H12 :1s    -0.0020  -0.0029   0.0540   0.2317   0.1426   0.3319  -0.4517

    Orbital         8        9
   1 C1  :1s     0.0957  -0.0629
   2 C1  :1s    -0.6936   0.4819
   3 C1  :2px   -0.0673  -0.6789
   4 C6  :1s     0.0477   0.0633
   5 C6  :1s    -0.3460  -0.4855
   6 C6  :2px    0.6168   0.3405
   7 C6  :2py   -0.3972   0.5866
   8 H7  :1s     0.3017   0.2741
   9 H12 :1s     0.1514  -0.2721

 Molecular orbitals for symmetry species 3  (B2u)
 ------------------------------------------------

    Orbital         1        2        3        4        5        6
   1 C1  :2py   -0.0038   0.1313   0.3314  -0.1041  -0.3197   0.8450
   2 C6  :1s     0.4962  -0.1272   0.0002   0.0231   0.0265   0.0827
   3 C6  :1s     0.0146   0.3414  -0.0003  -0.0719  -0.1730  -0.5996
   4 C6  :2px    0.0018  -0.0696   0.2893   0.2017  -0.1024  -0.3961
   5 C6  :2py   -0.0006   0.0113  -0.1640   0.2534  -0.4969   0.1591
   6 H12 :1s    -0.0033   0.0935   0.0021   0.2448   0.5690   0.2622

 Molecular orbitals for symmetry species 4  (B1g)
 ------------------------------------------------

    Orbital         1        2        3        4        5        6
   1 C1  :2py   -0.0039   0.2333  -0.3333   0.4266   0.2447  -0.7613
   2 C6  :1s     0.4959  -0.0989   0.0065   0.1405   0.0293   0.0004
   3 C6  :1s     0.0218   0.2901  -0.0132  -0.9155  -0.2142  -0.0031
   4 C6  :2px   -0.0026   0.1372  -0.0218   0.1896   0.4560   0.6627
   5 C6  :2py   -0.0005   0.0042   0.2955  -0.0947   0.5508  -0.3800
   6 H12 :1s    -0.0035   0.1533   0.2592   0.4224  -0.4680  -0.0006

 Molecular orbitals for symmetry species 5  (B1u)
 ------------------------------------------------

    Orbital         1        2
   1 C1  :2pz    0.3332   0.6597
   2 C6  :2pz    0.3334  -0.3297

 Molecular orbitals for symmetry species 6  (B2g)
 ------------------------------------------------

    Orbital         1        2
   1 C1  :2pz    0.5314  -0.5242
   2 C6  :2pz    0.2656   0.5245

 Molecular orbitals for symmetry species 7  (B3g)
 ------------------------------------------------

    Orbital         1
   1 C6  :2pz    0.4600

 Molecular orbitals for symmetry species 8  (Au )
 ------------------------------------------------

    Orbital         1
   1 C6  :2pz    0.5714

  Total CPU  time used in SIRIUS :   0.13 seconds
  Total wall time used in SIRIUS :   0.13 seconds

 
     Date and time (Linux)  : Mon May  4 21:54:03 2026
     Host name              : debian                                  


                     .---------------------------------------.
                     | End of Wave Function Section (SIRIUS) |
                     `---------------------------------------'

  Total CPU  time used in DALTON:   0.15 seconds
  Total wall time used in DALTON:   0.15 seconds

 
     Date and time (Linux)  : Mon May  4 21:54:03 2026
     Host name              : debian                                  
