
    -----------------------------------------------------------------------
          Psi4: An Open-Source Ab Initio Electronic Structure Package
                               Psi4 1.10 release

                         Git: Rev {} zzzzzzz 


    D. G. A. Smith, L. A. Burns, A. C. Simmonett, R. M. Parrish,
    M. C. Schieber, R. Galvelis, P. Kraus, H. Kruse, R. Di Remigio,
    A. Alenaizan, A. M. James, S. Lehtola, J. P. Misiewicz, M. Scheurer,
    R. A. Shaw, J. B. Schriber, Y. Xie, Z. L. Glick, D. A. Sirianni,
    J. S. O'Brien, J. M. Waldrop, A. Kumar, E. G. Hohenstein,
    B. P. Pritchard, B. R. Brooks, H. F. Schaefer III, A. Yu. Sokolov,
    K. Patkowski, A. E. DePrince III, U. Bozkaya, R. A. King,
    F. A. Evangelista, J. M. Turney, T. D. Crawford, C. D. Sherrill,
    J. Chem. Phys. 152(18) 184108 (2020). https://doi.org/10.1063/5.0006002

                            Additional Code Authors
    E. T. Seidl, C. L. Janssen, E. F. Valeev, M. L. Leininger,
    J. F. Gonthier, R. M. Richard, H. R. McAlexander, M. Saitow, X. Wang,
    P. Verma, M. H. Lechner, A. Jiang, S. Behnle, A. G. Heide,
    M. F. Herbst, D. L. Poole, T. Győri, E. C. Mitchell, J. P. Pederson,
    and A. M. Wallace

             Previous Authors, Complete List of Code Contributors,
                       and Citations for Specific Modules
    https://github.com/psi4/psi4/blob/master/codemeta.json
    https://github.com/psi4/psi4/graphs/contributors
    https://psicode.org/psi4manual/master/introduction.html#citing-psifour

    -----------------------------------------------------------------------


    Psi4 started on: Tuesday, 05 May 2026 10:28AM

    Process ID: 12390
    Host:       debian
    PSIDATADIR: /home/vdwv/DIPLOM_ITMO/CALCULATIONS_AND_SOFTS/softwares/Psi4_Shenanigans/psi4conda/share/psi4
    Memory:     500.0 MiB
    Threads:    1
    Addons:     adcc, a̶m̶b̶i̶t̶, b̶s̶e̶, c̶c̶t̶3̶, c̶f̶o̶u̶r̶, c̶h̶e̶m̶p̶s̶2̶, c̶p̶p̶e̶, ddx, dftd3, dftd4,
                dkh, ecpint, einsums, f̶o̶r̶t̶e̶, g̶a̶u̶x̶c̶, gcp, g̶d̶m̶a̶, geometric,
                g̶p̶u̶_̶d̶f̶c̶c̶, i̶n̶t̶e̶g̶r̶a̶t̶o̶r̶x̶x̶, i̶p̶i̶, libefp, m̶d̶i̶, m̶p̶2̶d̶,
                m̶r̶c̶c̶, ooo, o̶p̶e̶n̶f̶e̶r̶m̶i̶o̶n̶p̶s̶i̶4̶, pcmsolver, p̶s̶i̶4̶f̶o̶c̶k̶c̶i̶,
                p̶s̶i̶x̶a̶s̶, r̶e̶s̶p̶, s̶i̶m̶i̶n̶t̶, s̶n̶s̶m̶p̶2̶, v̶2̶r̶d̶m̶_̶c̶a̶s̶s̶c̶f̶

  ==> Input File <==

--------------------------------------------------------------------------
#! Sample DFT/6-31G CH3COOH computation

memory 600 mb

molecule ch3cooh {
  C1   1.134 -0.828  0.000
  C2   0.000  0.153  0.000
  O3   0.089  1.383  0.000
  H4   2.082 -0.291  0.000
  H5   1.072 -1.474  0.882
  H6   1.072 -1.474 -0.882
  O7  -1.224  0.492  0.000
  H8  -1.953  0.166  0.000
  units angstrom
}


set basis 6-31G
energy('scf', dft_functional = 'b3lyp')

--------------------------------------------------------------------------

  Memory set to 572.205 MiB by Python driver.

Scratch directory: /tmp/
   => Libint2 <=

    Primary   basis highest AM E, G, H:  6, 6, 3
    Auxiliary basis highest AM E, G, H:  7, 7, 4
    Onebody   basis highest AM E, G, H:  -, -, -
    Solid Harmonics ordering:            Gaussian

*** tstart() called on debian
*** at Tue May  5 10:28:29 2026

   => Loading Basis Set <=

    Name: 6-31G
    Role: ORBITAL
    Keyword: BASIS
    atoms 1-2    entry C          line    87 file /home/vdwv/DIPLOM_ITMO/CALCULATIONS_AND_SOFTS/softwares/Psi4_Shenanigans/psi4conda/share/psi4/basis/6-31g.gbs 
    atoms 3, 7   entry O          line   117 file /home/vdwv/DIPLOM_ITMO/CALCULATIONS_AND_SOFTS/softwares/Psi4_Shenanigans/psi4conda/share/psi4/basis/6-31g.gbs 
    atoms 4-6, 8 entry H          line    26 file /home/vdwv/DIPLOM_ITMO/CALCULATIONS_AND_SOFTS/softwares/Psi4_Shenanigans/psi4conda/share/psi4/basis/6-31g.gbs 


         ---------------------------------------------------------
                                   SCF
               by Justin Turney, Rob Parrish, Andy Simmonett
                          and Daniel G. A. Smith
                              RKS Reference
                        1 Threads,    572 MiB Core
         ---------------------------------------------------------

  ==> Geometry <==

    Molecular point group: cs
    Full point group: Cs

    Geometry (in Angstrom), charge = 0, multiplicity = 1:

       Center              X                  Y                   Z               Mass       
    ------------   -----------------  -----------------  -----------------  -----------------
         C            1.171577463448    -1.141113378331     0.000000000000    12.000000000000
         C            0.037577463448    -0.160113378331     0.000000000000    12.000000000000
         O            0.126577463448     1.069886621669     0.000000000000    15.994914619570
         H            2.119577463448    -0.604113378331     0.000000000000     1.007825032230
         H            1.109577463448    -1.787113378331     0.882000000000     1.007825032230
         H            1.109577463448    -1.787113378331    -0.882000000000     1.007825032230
         O           -1.186422536552     0.178886621669     0.000000000000    15.994914619570
         H           -1.915422536552    -0.147113378331     0.000000000000     1.007825032230

  Running in cs symmetry.

  Rotational constants: A =      0.68514  B =      0.24055  C =      0.18414 [cm^-1]
  Rotational constants: A =  20540.12417  B =   7211.63997  C =   5520.45225 [MHz]
  Nuclear repulsion =  126.863014957248780

  Charge       = 0
  Multiplicity = 1
  Electrons    = 32
  Nalpha       = 16
  Nbeta        = 16

  ==> Algorithm <==

  SCF Algorithm Type is DF.
  DIIS enabled.
  MOM disabled.
  Fractional occupation disabled.
  Guess Type is SAD.
  Energy threshold   = 1.00e-06
  Density threshold  = 1.00e-06
  Integral threshold = 1.00e-12

  ==> Primary Basis <==

  Basis Set: 6-31G
    Blend: 6-31G
    Number of shells: 28
    Number of basis functions: 44
    Number of Cartesian functions: 44
    Spherical Harmonics?: false
    Max angular momentum: 1

  ==> DFT Potential <==

   => LibXC <=

    Version 7.0.0
    S. Lehtola, C. Steigemann, M. J.T. Oliveira, and M. A.L. Marques.,  SoftwareX 7, 1–5 (2018) (10.1016/j.softx.2017.11.002)

   => Composite Functional: B3LYP <= 

    B3LYP Hyb-GGA Exchange-Correlation Functional

    P. J. Stephens, F. J. Devlin, C. F. Chabalowski, and M. J. Frisch.,  J. Phys. Chem. 98, 11623 (1994) (10.1021/j100096a001)

    Deriv               =              1
    GGA                 =           TRUE
    Meta                =          FALSE

    Exchange Hybrid     =           TRUE
    MP2 Hybrid          =          FALSE

   => Exchange Functionals <=

    0.0800   Slater exchange
    0.7200         Becke 88

   => Exact (HF) Exchange <=

    0.2000               HF 

   => Correlation Functionals <=

    0.1900   Vosko, Wilk & Nusair (VWN5_RPA)
    0.8100   Lee, Yang & Parr

   => LibXC Density Thresholds  <==

    XC_HYB_GGA_XC_B3LYP:  1.00E-15 

   => Molecular Quadrature <=

    Radial Scheme          =       TREUTLER
    Pruning Scheme         =           NONE
    Nuclear Scheme         =       TREUTLER

    Blocking Scheme        =         OCTREE
    BS radius alpha        =              1
    Pruning alpha          =              1
    Radial Points          =             75
    Spherical Points       =            302
    Total Points           =         171452
    Total Blocks           =           1344
    Max Points             =            256
    Max Functions          =             44
    Weights Tolerance      =       1.00E-15

   => Loading Basis Set <=

    Name: (6-31G AUX)
    Role: JKFIT
    Keyword: DF_BASIS_SCF
    atoms 1-2    entry C          line   121 file /home/vdwv/DIPLOM_ITMO/CALCULATIONS_AND_SOFTS/softwares/Psi4_Shenanigans/psi4conda/share/psi4/basis/cc-pvdz-jkfit.gbs 
    atoms 3, 7   entry O          line   221 file /home/vdwv/DIPLOM_ITMO/CALCULATIONS_AND_SOFTS/softwares/Psi4_Shenanigans/psi4conda/share/psi4/basis/cc-pvdz-jkfit.gbs 
    atoms 4-6, 8 entry H          line    51 file /home/vdwv/DIPLOM_ITMO/CALCULATIONS_AND_SOFTS/softwares/Psi4_Shenanigans/psi4conda/share/psi4/basis/cc-pvdz-jkfit.gbs 

  ==> Integral Setup <==

  DFHelper Memory: AOs need 0.008 GiB; user supplied 0.230 GiB. 
  SCF_SUBTYPE=INCORE selected. In-core MEM_DF algorithm will be used.
  Using in-core AOs.

  ==> MemDFJK: Density-Fitted J/K Matrices <==

    J tasked:                   Yes
    K tasked:                   Yes
    wK tasked:                   No
    OpenMP threads:               1
    Memory [MiB]:               235
    Algorithm:                 Core
    Schwarz Cutoff:           1E-12
    Mask sparsity (%):       0.2066
    Fitting Condition:        1E-10

   => Auxiliary Basis Set <=

  Basis Set: (6-31G AUX)
    Blend: CC-PVDZ-JKFIT
    Number of shells: 132
    Number of basis functions: 424
    Number of Cartesian functions: 424
    Spherical Harmonics?: false
    Max angular momentum: 3

  Cached 100.0% of DFT collocation blocks in 0.189 [GiB].

  Minimum eigenvalue in the overlap matrix is 5.1254496371E-03.
  Reciprocal condition number of the overlap matrix is 1.1581022571E-03.
    Using symmetric orthogonalization.

  ==> Pre-Iterations <==

  SCF Guess: Superposition of Atomic Densities via on-the-fly atomic UHF (no occupation information).

   -------------------------
    Irrep   Nso     Nmo    
   -------------------------
     A'        34      34 
     A"        10      10 
   -------------------------
    Total      44      44
   -------------------------

  ==> Iterations <==

                           Total Energy        Delta E     RMS |[F,P]|

   @DF-RKS iter SAD:  -227.54438455037464   -2.27544e+02   0.00000e+00 
   @DF-RKS iter   1:  -224.81615929248329    2.72823e+00   6.15414e-02 ADIIS/DIIS
   @DF-RKS iter   2:  -224.61362525739480    2.02534e-01   7.71619e-02 ADIIS/DIIS
   @DF-RKS iter   3:  -228.13880071636905   -3.52518e+00   3.41332e-02 ADIIS/DIIS
   @DF-RKS iter   4:  -228.25969161257174   -1.20891e-01   2.85800e-02 ADIIS/DIIS
   @DF-RKS iter   5:  -228.64769799185740   -3.88006e-01   8.79114e-03 ADIIS/DIIS
   @DF-RKS iter   6:  -228.67269654470314   -2.49986e-02   5.54268e-03 ADIIS/DIIS
   @DF-RKS iter   7:  -228.68832558941239   -1.56290e-02   2.89593e-04 ADIIS/DIIS
   @DF-RKS iter   8:  -228.68837710164865   -5.15122e-05   1.27058e-04 ADIIS/DIIS
   @DF-RKS iter   9:  -228.68838749160048   -1.03900e-05   2.28811e-05 DIIS
   @DF-RKS iter  10:  -228.68838786320686   -3.71606e-07   2.53321e-06 DIIS
   @DF-RKS iter  11:  -228.68838786925946   -6.05260e-09   6.86737e-07 DIIS
  Energy and wave function converged.


  ==> Post-Iterations <==

   Electrons on quadrature grid:
      Ntotal   =   31.9999859263 ; deviation = -1.407e-05 

    Orbital Energies [Eh]
    ---------------------

    Doubly Occupied:                                                      

       1Ap   -19.136401     2Ap   -19.066883     3Ap   -10.324285  
       4Ap   -10.230411     5Ap    -1.196476     6Ap    -0.982128  
       7Ap    -0.782699     8Ap    -0.678177     9Ap    -0.541224  
       1App   -0.489978    10Ap    -0.455852     2App   -0.422937  
      11Ap    -0.382576    12Ap    -0.369371     3App   -0.248828  
      13Ap    -0.135593  

    Virtual:                                                              

       4App   -0.005841    14Ap     0.070227    15Ap     0.104647  
      16Ap     0.143183     5App    0.145910    17Ap     0.165653  
      18Ap     0.272444    19Ap     0.329452     6App    0.512810  
      20Ap     0.537339    21Ap     0.613865    22Ap     0.623289  
       7App    0.628440    23Ap     0.706731    24Ap     0.785550  
       8App    0.874112    25Ap     0.888724    26Ap     0.936032  
       9App    0.964517    27Ap     0.978382    28Ap     1.015809  
      10App    1.031354    29Ap     1.097992    30Ap     1.232830  
      31Ap     1.401429    32Ap     1.454959    33Ap     1.748585  
      34Ap     1.951592  

    Final Occupation by Irrep:
             Ap   App 
    DOCC [    13,    3 ]
    NA   [    13,    3 ]
    NB   [    13,    3 ]

  @DF-RKS Final Energy:  -228.68838786925946

   => Energetics <=

    Nuclear Repulsion Energy =            126.8630149572487795
    One-Electron Energy =                -562.9439638607009329
    Two-Electron Energy =                 231.4425772721666874
    DFT Exchange-Correlation Energy =     -24.0500162379739777
    Empirical Dispersion Energy =           0.0000000000000000
    VV10 Nonlocal Energy =                  0.0000000000000000
    Total Energy =                       -228.6883878692594578

Computation Completed


Properties will be evaluated at   0.000000,   0.000000,   0.000000 [a0]

Properties computed using the SCF density matrix


 Multipole Moments:

 ------------------------------------------------------------------------------------
     Multipole            Electronic (a.u.)      Nuclear  (a.u.)        Total (a.u.)
 ------------------------------------------------------------------------------------

 L = 1.  Multiply by 2.5417464519 to convert [e a0] to [Debye]
 Dipole X            :         -2.2233162            2.2666865            0.0433703
 Dipole Y            :          2.2188342           -4.0489803           -1.8301461
 Dipole Z            :          0.0000000            0.0000000            0.0000000
 Magnitude           :                                                    1.8306599

 ------------------------------------------------------------------------------------

*** tstop() called on debian at Tue May  5 10:28:36 2026
Module time:
	user time   =       5.87 seconds =       0.10 minutes
	system time =       0.28 seconds =       0.00 minutes
	total time  =          7 seconds =       0.12 minutes
Total time:
	user time   =       5.87 seconds =       0.10 minutes
	system time =       0.28 seconds =       0.00 minutes
	total time  =          7 seconds =       0.12 minutes

    Psi4 stopped on: Tuesday, 05 May 2026 10:28AM
    Psi4 wall time for execution: 0:00:06.24

*** Psi4 exiting successfully. Buy a developer a beer!
