 argument  1 = ch3cooh_acetic_acid_dft_b3lyp_3-21g.nw
                                         
                                         


             Northwest Computational Chemistry Package (NWChem) 7.2.3
             --------------------------------------------------------


                    Environmental Molecular Sciences Laboratory
                       Pacific Northwest National Laboratory
                                Richland, WA 99352

                              Copyright (c) 1994-2022
                       Pacific Northwest National Laboratory
                            Battelle Memorial Institute

             NWChem is an open-source computational chemistry package
                        distributed under the terms of the
                      Educational Community License (ECL) 2.0
             A copy of the license is included with this distribution
                              in the LICENSE.TXT file

                                  ACKNOWLEDGMENT
                                  --------------

            This software and its documentation were developed at the
            EMSL at Pacific Northwest National Laboratory, a multiprogram
            national laboratory, operated for the U.S. Department of Energy
            by Battelle under Contract Number DE-AC05-76RL01830. Support
            for this work was provided by the Department of Energy Office
            of Biological and Environmental Research, Office of Basic
            Energy Sciences, and the Office of Advanced Scientific Computing.


           Job information
           ---------------

    hostname        = debian
    program         = nwchem
    date            = Tue May  5 14:12:24 2026

    compiled        = Mon_May_12_21:20:53_2025
    source          = /build/reproducible-path/nwchem-7.2.3/build-openmpi
    nwchem branch   = 7.2.3
    nwchem revision = N/A
    ga revision     = N/A
    use scalapack   = T
    input           = ch3cooh_acetic_acid_dft_b3lyp_3-21g.nw
    prefix          = acetic_acid.
    data base       = ./acetic_acid.db
    status          = startup
    nproc           =        1
    time left       =     -1s



           Memory information
           ------------------

    heap     =   32767998 doubles =    250.0 Mbytes
    stack    =   32767995 doubles =    250.0 Mbytes
    global   =   65536000 doubles =    500.0 Mbytes (distinct from heap & stack)
    total    =  131071993 doubles =   1000.0 Mbytes
    verify   = yes
    hardfail = no 


           Directory information
           ---------------------

  0 permanent = .
  0 scratch   = .




                                NWChem Input Module
                                -------------------



 Scaling coordinates for geometry "geometry" by  1.889725989
 (inverse scale =  0.529177249)

 C1  symmetry detected

          ------
          auto-z
          ------
  no constraints, skipping    0.0000000000000000     
  no constraints, skipping    0.0000000000000000     


                             Geometry "geometry" -> ""
                             -------------------------

 Output coordinates in angstroms (scale by  1.889725989 to convert to a.u.)

  No.       Tag          Charge          X              Y              Z
 ---- ---------------- ---------- -------------- -------------- --------------
    1 C1                   6.0000     0.09780591    -1.40195759     0.00000000
    2 C2                   6.0000     0.12941628     0.10668179     0.00000000
    3 O3                   8.0000     1.10860054     0.83998336     0.00000000
    4 H4                   1.0000     1.11621183    -1.78843576     0.00000000
    5 H5                   1.0000    -0.44287541    -1.75694028     0.88300000
    6 H6                   1.0000    -0.44287541    -1.75694028    -0.88300000
    7 O7                   8.0000    -1.16756899     0.59528510     0.00000000
    8 H8                   1.0000    -1.12204655     1.59182346     0.00000000

      Atomic Mass 
      ----------- 

      C1                12.000000
      C2                12.000000
      O3                15.994910
      H4                 1.007825
      H5                 1.007825
      H6                 1.007825
      O7                15.994910
      H8                 1.007825


 Effective nuclear repulsion energy (a.u.)     119.5475932188

            Nuclear Dipole moment (a.u.) 
            ----------------------------
        X                 Y               Z
 ---------------- ---------------- ----------------
    -0.0000000000    -0.0000000000     0.0000000000



                                Z-matrix (autoz)
                                -------- 

 Units are Angstrom for bonds and degrees for angles

      Type          Name      I     J     K     L     M      Value
      ----------- --------  ----- ----- ----- ----- ----- ----------
    1 Stretch                  1     2                       1.50897
    2 Stretch                  1     4                       1.08927
    3 Stretch                  1     5                       1.09455
    4 Stretch                  1     6                       1.09455
    5 Stretch                  2     3                       1.22333
    6 Stretch                  2     7                       1.38597
    7 Stretch                  7     8                       0.99758
    8 Bend                     1     2     3               128.02952
    9 Bend                     1     2     7               109.44217
   10 Bend                     2     1     4               109.58108
   11 Bend                     2     1     5               109.54794
   12 Bend                     2     1     6               109.54794
   13 Bend                     2     7     8               108.02703
   14 Bend                     3     2     7               122.52831
   15 Bend                     4     1     5               110.28983
   16 Bend                     4     1     6               110.28983
   17 Bend                     5     1     6               107.55432
   18 Torsion                  1     2     7     8         180.00000
   19 Torsion                  3     2     1     4           0.00000
   20 Torsion                  3     2     1     5         121.12220
   21 Torsion                  3     2     1     6        -121.12220
   22 Torsion                  3     2     7     8          -0.00000
   23 Torsion                  4     1     2     7         180.00000
   24 Torsion                  5     1     2     7         -58.87780
   25 Torsion                  6     1     2     7          58.87780


            XYZ format geometry
            -------------------
     8
 geometry
 C1                    0.09780591    -1.40195759     0.00000000
 C2                    0.12941628     0.10668179     0.00000000
 O3                    1.10860054     0.83998336     0.00000000
 H4                    1.11621183    -1.78843576     0.00000000
 H5                   -0.44287541    -1.75694028     0.88300000
 H6                   -0.44287541    -1.75694028    -0.88300000
 O7                   -1.16756899     0.59528510     0.00000000
 H8                   -1.12204655     1.59182346     0.00000000

 ==============================================================================
                                internuclear distances
 ------------------------------------------------------------------------------
       center one      |      center two      | atomic units |  angstroms
 ------------------------------------------------------------------------------
    2 C2               |   1 C1               |     2.85154  |     1.50897
    3 O3               |   2 C2               |     2.31176  |     1.22333
    4 H4               |   1 C1               |     2.05843  |     1.08927
    5 H5               |   1 C1               |     2.06840  |     1.09455
    6 H6               |   1 C1               |     2.06840  |     1.09455
    7 O7               |   2 C2               |     2.61910  |     1.38597
    8 H8               |   7 O7               |     1.88515  |     0.99758
 ------------------------------------------------------------------------------
                         number of included internuclear distances:          7
 ==============================================================================



 ==============================================================================
                                 internuclear angles
 ------------------------------------------------------------------------------
        center 1       |       center 2       |       center 3       |  degrees
 ------------------------------------------------------------------------------
    2 C2               |   1 C1               |   4 H4               |   109.58
    2 C2               |   1 C1               |   5 H5               |   109.55
    2 C2               |   1 C1               |   6 H6               |   109.55
    4 H4               |   1 C1               |   5 H5               |   110.29
    4 H4               |   1 C1               |   6 H6               |   110.29
    5 H5               |   1 C1               |   6 H6               |   107.55
    1 C1               |   2 C2               |   3 O3               |   128.03
    1 C1               |   2 C2               |   7 O7               |   109.44
    3 O3               |   2 C2               |   7 O7               |   122.53
    2 C2               |   7 O7               |   8 H8               |   108.03
 ------------------------------------------------------------------------------
                            number of included internuclear angles:         10
 ==============================================================================



                      Basis "ao basis" -> "" (cartesian)
                      -----
  C (Carbon)
  ----------
            Exponent  Coefficients 
       -------------- ---------------------------------------------------------
  1 S  1.72256000E+02  0.061767
  1 S  2.59109000E+01  0.358794
  1 S  5.53335000E+00  0.700713

  2 S  3.66498000E+00 -0.395897
  2 S  7.70545000E-01  1.215840

  3 P  3.66498000E+00  0.236460
  3 P  7.70545000E-01  0.860619

  4 S  1.95857000E-01  1.000000

  5 P  1.95857000E-01  1.000000

  O (Oxygen)
  ----------
            Exponent  Coefficients 
       -------------- ---------------------------------------------------------
  1 S  3.22037000E+02  0.059239
  1 S  4.84308000E+01  0.351500
  1 S  1.04206000E+01  0.707658

  2 S  7.40294000E+00 -0.404453
  2 S  1.57620000E+00  1.221560

  3 P  7.40294000E+00  0.244586
  3 P  1.57620000E+00  0.853955

  4 S  3.73684000E-01  1.000000

  5 P  3.73684000E-01  1.000000

  H (Hydrogen)
  ------------
            Exponent  Coefficients 
       -------------- ---------------------------------------------------------
  1 S  5.44717800E+00  0.156285
  1 S  8.24547000E-01  0.904691

  2 S  1.83192000E-01  1.000000



 Summary of "ao basis" -> "" (cartesian)
 ------------------------------------------------------------------------------
       Tag                 Description            Shells   Functions and Types
 ---------------- ------------------------------  ------  ---------------------
 C                           3-21g                   5        9   3s2p
 O                           3-21g                   5        9   3s2p
 H                           3-21g                   2        2   2s



                                 NWChem DFT Module
                                 -----------------



  Caching 1-el integrals 
  WARNING: movecs_in_org=atomic not equal to movecs_in=./acetic_acid.movecs
   Time after variat. SCF:      0.1
   Time prior to 1st pass:      0.1

           Memory utilization after 1st SCF pass: 
           Heap Space remaining (MW):       30.85            30848718
          Stack Space remaining (MW):       32.77            32767540

   convergence    iter        energy       DeltaE   RMS-Dens  Diis-err    time
 ---------------- ----- ----------------- --------- --------- ---------  ------
 d= 0,ls=0.0,diis     1   -227.6557942731 -3.47D+02  4.60D-02  1.29D+00     0.8
 d= 0,ls=0.0,diis     2   -227.2931794393  3.63D-01  3.37D-02  5.29D+00     1.1
 d= 0,ls=0.0,diis     3   -227.7932203244 -5.00D-01  8.48D-03  1.99D-01     1.4
 d= 0,ls=0.0,diis     4   -227.8054903057 -1.23D-02  3.03D-03  7.40D-02     1.7
 d= 0,ls=0.0,diis     5   -227.8121321908 -6.64D-03  4.24D-04  5.24D-04     2.1
  Resetting Diis
 d= 0,ls=0.0,diis     6   -227.8121760372 -4.38D-05  1.16D-04  3.53D-05     2.4
 d= 0,ls=0.0,diis     7   -227.8121800637 -4.03D-06  4.94D-05  1.65D-06     2.7
 d= 0,ls=0.0,diis     8   -227.8121798707  1.93D-07  3.08D-05  3.58D-06     3.0
 d= 0,ls=0.0,diis     9   -227.8121802363 -3.66D-07  7.13D-06  3.18D-07     3.4


         Total DFT energy =     -227.812180236269
      One electron energy =     -547.407560274048
           Coulomb energy =      229.463311292429
    Exchange-Corr. energy =      -29.415524473448
 Nuclear repulsion energy =      119.547593218798

 Numeric. integr. density =       31.999997610001

     Total iterative time =      3.3s



 Task  times  cpu:        3.1s     wall:        3.3s
 Summary of allocated global arrays
-----------------------------------
  No active global arrays


MA_summarize_allocated_blocks: starting scan ...
MA_summarize_allocated_blocks: scan completed: 0 heap blocks, 0 stack blocks
MA usage statistics:

	allocation statistics:
					      heap	     stack
					      ----	     -----
	current number of blocks	         0	         0
	maximum number of blocks	        21	        53
	current total bytes		         0	         0
	maximum total bytes		  15354144	  22512440
	maximum total K-bytes		     15355	     22513
	maximum total M-bytes		        16	        23


                                NWChem Input Module
                                -------------------




                                     CITATION
                                     --------
                Please cite the following reference when publishing
                           results obtained with NWChem:

          E. Apra, E. J. Bylaska, W. A. de Jong, N. Govind, K. Kowalski,
       T. P. Straatsma, M. Valiev, H. J. J. van Dam, Y. Alexeev, J. Anchell,
       V. Anisimov, F. W. Aquino, R. Atta-Fynn, J. Autschbach, N. P. Bauman,
     J. C. Becca, D. E. Bernholdt, K. Bhaskaran-Nair, S. Bogatko, P. Borowski,
         J. Boschen, J. Brabec, A. Bruner, E. Cauet, Y. Chen, G. N. Chuev,
      C. J. Cramer, J. Daily, M. J. O. Deegan, T. H. Dunning Jr., M. Dupuis,
   K. G. Dyall, G. I. Fann, S. A. Fischer, A. Fonari, H. Fruchtl, L. Gagliardi,
      J. Garza, N. Gawande, S. Ghosh, K. Glaesemann, A. W. Gotz, J. Hammond,
       V. Helms, E. D. Hermes, K. Hirao, S. Hirata, M. Jacquelin, L. Jensen,
   B. G. Johnson, H. Jonsson, R. A. Kendall, M. Klemm, R. Kobayashi, V. Konkov,
      S. Krishnamoorthy, M. Krishnan, Z. Lin, R. D. Lins, R. J. Littlefield,
      A. J. Logsdail, K. Lopata, W. Ma, A. V. Marenich, J. Martin del Campo,
   D. Mejia-Rodriguez, J. E. Moore, J. M. Mullin, T. Nakajima, D. R. Nascimento,
    J. A. Nichols, P. J. Nichols, J. Nieplocha, A. Otero-de-la-Roza, B. Palmer,
    A. Panyala, T. Pirojsirikul, B. Peng, R. Peverati, J. Pittner, L. Pollack,
   R. M. Richard, P. Sadayappan, G. C. Schatz, W. A. Shelton, D. W. Silverstein,
   D. M. A. Smith, T. A. Soares, D. Song, M. Swart, H. L. Taylor, G. S. Thomas,
            V. Tipparaju, D. G. Truhlar, K. Tsemekhman, T. Van Voorhis,
      A. Vazquez-Mayagoitia, P. Verma, O. Villa, A. Vishnu, K. D. Vogiatzis,
        D. Wang, J. H. Weare, M. J. Williamson, T. L. Windus, K. Wolinski,
        A. T. Wong, Q. Wu, C. Yang, Q. Yu, M. Zacharias, Z. Zhang, Y. Zhao,
                                and R. J. Harrison
                        "NWChem: Past, present, and future
                         J. Chem. Phys. 152, 184102 (2020)
                               doi:10.1063/5.0004997

                                      AUTHORS
                                      -------
  E. Apra, E. J. Bylaska, N. Govind, K. Kowalski, M. Valiev, D. Mejia-Rodriguez,
       A. Kunitsa, N. P. Bauman, A. Panyala, W. A. de Jong, T. P. Straatsma,
   H. J. J. van Dam, D. Wang, T. L. Windus, J. Hammond, J. Autschbach, A. Woods,
    K. Bhaskaran-Nair, J. Brabec, K. Lopata, S. A. Fischer, S. Krishnamoorthy,
     M. Jacquelin, W. Ma, M. Klemm, O. Villa, Y. Chen, V. Anisimov, F. Aquino,
     S. Hirata, M. T. Hackler, E. Hermes, L. Jensen, J. E. Moore, J. C. Becca,
      V. Konjkov, T. Risthaus, M. Malagoli, A. Marenich, A. Otero-de-la-Roza,
        J. Mullin, P. Nichols, R. Peverati, J. Pittner, Y. Zhao, P.-D. Fan,
        A. Fonari, M. J. Williamson, R. J. Harrison, J. R. Rehr, M. Dupuis,
     D. Silverstein, D. M. A. Smith, J. Nieplocha, V. Tipparaju, M. Krishnan,
     B. E. Van Kuiken, A. Vazquez-Mayagoitia, M. Swart, Q. Wu, T. Van Voorhis,
     A. A. Auer, M. Nooijen, L. D. Crosby, E. Brown, G. Cisneros, G. I. Fann,
   H. Fruchtl, J. Garza, K. Hirao, R. A. Kendall, J. A. Nichols, K. Tsemekhman,
    K. Wolinski, J. Anchell, D. E. Bernholdt, P. Borowski, T. Clark, D. Clerc,
   H. Dachsel, M. J. O. Deegan, K. Dyall, D. Elwood, E. Glendening, M. Gutowski,
   A. C. Hess, J. Jaffe, B. G. Johnson, J. Ju, R. Kobayashi, R. Kutteh, Z. Lin,
   R. Littlefield, X. Long, B. Meng, T. Nakajima, S. Niu, L. Pollack, M. Rosing,
   K. Glaesemann, G. Sandrone, M. Stave, H. Taylor, G. Thomas, J. H. van Lenthe,
                               A. T. Wong, Z. Zhang.

 Total times  cpu:        3.2s     wall:        3.4s
