

     ************************************************************************
     *************** Dalton - An Electronic Structure Program ***************
     ************************************************************************

    This is output from DALTON release Dalton2025.0-dev (2025)
         ( Web site: http://daltonprogram.org )

   ----------------------------------------------------------------------------

    NOTE:
     
    Dalton is an experimental code for the evaluation of molecular
    properties using (MC)SCF, DFT, CI, and CC wave functions.
    The authors accept no responsibility for the performance of
    the code or for the correctness of the results.
     
    The code (in whole or part) is provided under a licence and
    is not to be reproduced for further distribution without
    the written permission of the authors or their representatives.
     
    See the home page "http://daltonprogram.org" for further information.
     
    If results obtained with this code are published,
    the appropriate citations would be both of:
     
       K. Aidas, C. Angeli, K. L. Bak, V. Bakken,
       R. Bast, L. Boman, O. Christiansen, R. Cimiraglia,
       S. Coriani, P. Dahle, E. K. Dalskov, U. Ekstroem,
       T. Enevoldsen, J. J. Eriksen, P. Ettenhuber, B. Fernandez,
       L. Ferrighi, H. Fliegl, L. Frediani, K. Hald, A. Halkier,
       C. Haettig, H. Heiberg, T. Helgaker, A. C. Hennum,
       H. Hettema, E. Hjertenaes, S. Hoest, I.-M. Hoeyvik,
       M. F. Iozzi, B. Jansik, H. J. Aa. Jensen, D. Jonsson,
       P. Joergensen, J. Kauczor, S. Kirpekar,
       T. Kjaergaard, W. Klopper, S. Knecht, R. Kobayashi, H. Koch,
       J. Kongsted, A. Krapp, K. Kristensen, A. Ligabue,
       O. B. Lutnaes, J. I. Melo, K. V. Mikkelsen, R. H. Myhre,
       C. Neiss, C. B. Nielsen, P. Norman, J. Olsen,
       J. M. H. Olsen, A. Osted, M. J. Packer, F. Pawlowski,
       T. B. Pedersen, P. F. Provasi, S. Reine, Z. Rinkevicius,
       T. A. Ruden, K. Ruud, V. Rybkin, P. Salek, C. C. M. Samson,
       A. Sanchez de Meras, T. Saue, S. P. A. Sauer,
       B. Schimmelpfennig, K. Sneskov, A. H. Steindal,
       K. O. Sylvester-Hvid, P. R. Taylor, A. M. Teale,
       E. I. Tellgren, D. P. Tew, A. J. Thorvaldsen, L. Thoegersen,
       O. Vahtras, M. A. Watson, D. J. D. Wilson, M. Ziolkowski
       and H. Agren,
       "The Dalton quantum chemistry program system",
       WIREs Comput. Mol. Sci. 2014, 4:269-284 (doi: 10.1002/wcms.1172)
     
    and
     
       Dalton, a molecular electronic structure program,
       Release Dalton2025.0-dev (2025), see http://daltonprogram.org
   ----------------------------------------------------------------------------

    Authors in alphabetical order (Major contribution(s) in parenthesis):

  Kestutis Aidas,              Vilnius University,        Lithuania   (QM/MM)
  Celestino Angeli,            University of Ferrara,     Italy       (NEVPT2)
  Juan J. Aucar,               Northeast National UniversiArgentina   (LRESC, Relativistic Effects on NMR Shieldings and EFG)
  Keld L. Bak,                 UNI-C,                     Denmark     (AOSOPPA, non-adiabatic coupling, magnetic properties)
  Vebjoern Bakken,             University of Oslo,        Norway      (DALTON; geometry optimizer, symmetry detection)
  Radovan Bast,                UiT The Arctic U. of NorwayNorway      (DALTON installation and execution frameworks)
  Pablo Baudin,                University of Valencia,    Spain       (Cholesky excitation energies)
  Linus Boman,                 NTNU,                      Norway      (Cholesky decomposition and subsystems)
  Bruno N. Cabral Tenorio,     Technical Univ. of Denmark,Denmark     (Lanczos-based CC methods)
  Ove Christiansen,            Aarhus University,         Denmark     (CC module)
  Renzo Cimiraglia,            University of Ferrara,     Italy       (NEVPT2)
  Sonia Coriani,               Technical Univ. of Denmark,Denmark     (CC and RESPONS modules)
  Janusz Cukras,               University of Warsaw,      Poland      (MChD in RESPONS)
  Paal Dahle,                  University of Oslo,        Norway      (Parallelization)
  Erik K. Dalskov,             UNI-C,                     Denmark     (SOPPA)
  Thomas Enevoldsen,           Univ. of Southern Denmark, Denmark     (SOPPA)
  Janus J. Eriksen,            Aarhus University,         Denmark     (Polarizable embedding, TDA)
  Rasmus Faber,                Technical Univ. of Denmark,Denmark     (Vib.avg. NMR w. SOPPA, parallel AO-SOPPA, CVS-CC and EOMCC)
  Tobias Fahleson,             KTH Stockholm,             Sweden      (Damped cubic response)
  Berta Fernandez,             U. of Santiago de CompostelSpain       (Doublet spin, ESR in RESPONS)
  Lara Ferrighi,               Aarhus University,         Denmark     (PCM Cubic response)
  Heike Fliegl,                University of Oslo,        Norway      (CCSD(R12))
  Luca Frediani,               UiT The Arctic U. of NorwayNorway      (PCM)
  Emmanuel Fromager,           Univ. Strasbourg,          France      (MC-srDFT)
  Bin Gao,                     UiT The Arctic U. of NorwayNorway      (Gen1Int library)
  Andre S. P. Gomes,           CNRS/Universite de Lille,  France      (Frozen density embedding)
  Christof Haettig,            Ruhr-University Bochum,    Germany     (CC module)
  Kasper Hald,                 Aarhus University,         Denmark     (CC module)
  Asger Halkier,               Aarhus University,         Denmark     (CC module)
  Frederik Beyer Hansen,       University of Copenhagen,  Denmark     (Parallel AO-SOPPA)
  Erik D. Hedegaard,           Univ. of Southern Denmark, Denmark     (Polarizable embedding, QM/MM, and MC-srDFT)
  Hanne Heiberg,               University of Oslo,        Norway      (Geometry analysis, selected one-electron integrals)
  Trygve Helgaker,             University of Oslo,        Norway      (DALTON; ABACUS, ERI, DFT modules, London, and much more)
  Alf Christian Hennum,        University of Oslo,        Norway      (Parity violation)
  Hinne Hettema,               University of Auckland,    New Zealand (Quadratic response in RESPONS; SIRIUS supersymmetry)
  Andreas E. Hillers-Bendtsen, University of Copenhagen,  Denmark     (MP3)
  Eirik Hjertenaes,            NTNU,                      Norway      (Cholesky decomposition)
  Nicolai Machholdt Hoeyer,    Aarhus University,         Denmark     (MP3)
  Pi A. B. Haase,              University of Copenhagen,  Denmark     (Triplet AO-SOPPA)
  Maria Francesca Iozzi,       University of Oslo,        Norway      (RPA)
  Christoph Jacob,             TU Braunschweig            Germany     (Frozen density embedding)
  Brano Jansik,                Technical Univ. of Ostrava Czech Rep.  (DFT cubic response)
  Hans Joergen Aa. Jensen,     Univ. of Southern Denmark, Denmark     (DALTON; SIRIUS, RESPONS, ABACUS, MC-srDFT, and much more)
  Dan Jonsson,                 UiT The Arctic U. of NorwayNorway      (Cubic response in RESPONS module)
  Poul Joergensen,             Aarhus University,         Denmark     (RESPONS, ABACUS, and CC modules)
  Maciej Kaminski,             University of Warsaw,      Poland      (CPPh in RESPONS)
  Joanna Kauczor,              Linkoeping University,     Sweden      (Complex polarization propagator (CPP) module)
  Sheela Kirpekar,             Univ. of Southern Denmark, Denmark     (Mass-velocity & Darwin integrals)
  Frederik Oersted Kjeldal,    Technical Univ. of Denmark,Denmark     (MP3)
  Erik Kjellgren,              Univ. of Southern Denmark, Denmark     (MC-srDFT)
  Wim Klopper,                 KIT Karlsruhe,             Germany     (R12 code in CC, SIRIUS, and ABACUS modules)
  Stefan Knecht,               ETH Zurich,                Switzerland (Parallel CI and MCSCF, MC-srDFT)
  Rika Kobayashi,              Australian National Univ., Australia   (DIIS in CC, London in MCSCF)
  Henrik Koch,                 NTNU,                      Norway      (CC module, Cholesky decomposition)
  Jacob Kongsted,              Univ. of Southern Denmark, Denmark     (Polarizable embedding, polarizable density embedding, QM/MM)
  Andrea Ligabue,              University of Modena,      Italy       (CTOCD, AOSOPPA)
  Nanna H. List,               Univ. of Southern Denmark, Denmark     (Polarizable embedding)
  Ola B. Lutnaes,              University of Oslo,        Norway      (DFT Hessian)
  Juan I. Melo,                University of Buenos Aires,Argentina   (LRESC, Relativistic Effects on NMR Shieldings)
  Kurt V. Mikkelsen,           University of Copenhagen,  Denmark     (MC-SCRF, QM/MM, and MP3)
  Rolf H. Myhre,               NTNU,                      Norway      (Subsystems and CC3)
  Christian Neiss,             Univ. Erlangen-Nuernberg,  Germany     (CCSD(R12))
  Christian B. Nielsen,        University of Copenhagen,  Denmark     (QM/MM)
  Patrick Norman,              KTH Stockholm,             Sweden      (Cubic response and complex frequency response in RESPONS)
  Jeppe Olsen,                 Aarhus University,         Denmark     (SIRIUS CI/density modules)
  Jogvan Magnus H. Olsen,      Aarhus University,         Denmark     (Polarizable embedding and polarizable density embedding)
  Anders Osted,                Copenhagen University,     Denmark     (QM/MM)
  Martin J. Packer,            University of Sheffield,   UK          (SOPPA)
  Filip Pawlowski,             Kazimierz Wielki UniversityPoland      (CC3)
  Morten N. Pedersen,          Univ. of Southern Denmark, Denmark     (Polarizable embedding)
  Thomas B. Pedersen,          University of Oslo,        Norway      (Cholesky decomposition)
  Patricio F. Provasi,         University of Northeastern,Argentina   (Analysis of coupling constants in localized orbitals)
  Peter Reinholdt,             Univ. of Southern Denmark, Denmark     (Polarizable embedding and polarizable density embedding)
  Zilvinas Rinkevicius,        KTH Stockholm,             Sweden      (open-shell DFT, ESR)
  Elias Rudberg,               KTH Stockholm,             Sweden      (DFT grid and basis info)
  Torgeir A. Ruden,            University of Oslo,        Norway      (Numerical derivatives in ABACUS)
  Kenneth Ruud,                UiT The Arctic U. of NorwayNorway      (DALTON; ABACUS magnetic properties and much more)
  Pawel Salek,                 KTH Stockholm,             Sweden      (DALTON; DFT code)
  Claire C. M. Samson,         University of Karlsruhe    Germany     (Boys localization, r12 integrals in ERI)
  Alfredo Sanchez de Meras,    University of Valencia,    Spain       (CC module, Cholesky decomposition)
  Trond Saue,                  Paul Sabatier University,  France      (direct Fock matrix construction)
  Stephan P. A. Sauer,         University of Copenhagen,  Denmark     (SOPPA(CCSD), SOPPA prop., AOSOPPA, vibrational g-factors)
  Bernd Schimmelpfennig,       Forschungszentrum KarlsruheGermany     (AMFI module)
  Anna K. Schnack-Petersen,    University of Copenhagen,  Denmark     (RPA(D) and HRPA(D) properties in AOSOPPA)
  Kristian Sneskov,            Aarhus University,         Denmark     (Polarizable embedding, QM/MM)
  Arnfinn H. Steindal,         UiT The Arctic U. of NorwayNorway      (parallel QM/MM, polarizable embedding)
  Casper Steinmann,            Aalborg University,        Denmark     (QFIT, polarizable embedding)
  K. O. Sylvester-Hvid,        University of Copenhagen,  Denmark     (MC-SCRF)
  Peter R. Taylor,             VLSCI/Univ. of Melbourne,  Australia   (Symmetry handling ABACUS, integral transformation)
  Andrew M. Teale,             University of Nottingham,  England     (DFT-AC, DFT-D)
  David P. Tew,                University of Bristol,     England     (CCSD(R12))
  Julien Toulouse,             Sorbonne Univ.,            France      (MC-srDFT)
  Olav Vahtras,                KTH Stockholm,             Sweden      (Triplet response, spin-orbit, ESR, TDDFT, open-shell DFT)
  Lucas Visscher,              Vrije Universiteit AmsterdaNetherlands (Frozen density embedding)
  David J. Wilson,             La Trobe University,       Australia   (DFT Hessian and DFT magnetizabilities)
  Luna Zamok,                  University of Copenhagen,  Denmark     (Block Lanczos RPA solver in SOPPA module)
  Hans Agren,                  KTH Stockholm,             Sweden      (SIRIUS module, RESPONS, MC-SCRF solvation)
 --------------------------------------------------------------------------------

     Date and time (Linux)  : Thu May  7 16:57:08 2026
     Host name              : debian                                  

 * Work memory size             :    64000000 =  488.28 megabytes.

 * Directories for basis set searches:
   1) /home/vdwv/DIPLOM_ITMO/CALCULATIONS_AND_SOFTS/softwares/Dalton_Shenanigans/dalton/dalton/build/diplom_files/ccl2o/dft/ccl2o_dft_b3lyp_sto-3g
   2) /home/vdwv/DIPLOM_ITMO/CALCULATIONS_AND_SOFTS/softwares/Dalton_Shenanigans/dalton/dalton/build/basis


Compilation information
-----------------------

 Who compiled             | vdwv
 Host                     | debian
 System                   | Linux-6.12.73+deb13-amd64
 CMake generator          | Unix Makefiles
 Processor                | x86_64
 64-bit integers          | OFF
 MPI                      | OFF
 Fortran compiler         | /usr/bin/gfortran
 Fortran compiler version | GNU Fortran (Debian 14.2.0-19) 14.2.0
 C compiler               | /usr/bin/gcc
 C compiler version       | gcc (Debian 14.2.0-19) 14.2.0
 C++ compiler             | /usr/bin/g++
 C++ compiler version     | g++ (Debian 14.2.0-19) 14.2.0
 BLAS                     | /opt/intel/oneapi/mkl/2025.3/lib/intel64/libmkl_gf
                          | _lp64.so;/opt/intel/oneapi/mkl/2025.3/lib/intel64/
                          | libmkl_sequential.so;/opt/intel/oneapi/mkl/2025.3/
                          | lib/intel64/libmkl_core.so;/usr/lib/x86_64-linux-g
                          | nu/libpthread.a;/usr/lib/x86_64-linux-gnu/libm.so
 LAPACK                   | /opt/intel/oneapi/mkl/2025.3/lib/intel64/libmkl_la
                          | pack95_lp64.a;/opt/intel/oneapi/mkl/2025.3/lib/int
                          | el64/libmkl_gf_lp64.so
 Static linking           | OFF
 Last Git revision        | 1892235f9264b9be21ec2fefe6e0081d659ab244
 Git branch               | master
 Configuration time       | 2026-05-04 17:50:26.788788

 * Sequential calculation.


   Content of the .dal input file
 ----------------------------------

BASIS
STO-3G
Phosgene CCl2O using the STO-3G basis
Using automatic symmetry detection
AtomTypes=3 Angstrom
Charge=8.0 Atoms=1
O      0.000      0.000      1.766
Charge=6.0 Atoms=1
C      0.000      0.000      0.540
Charge=17.0 Atoms=2
Cl1    0.000      1.516     -0.511
Cl2    0.000     -1.516     -0.511

**DALTON INPUT
.RUN WAVE FUN
**WAVE FUN
.DFT
 B3LYP
**END OF



       *******************************************************************
       *********** Output from DALTON general input processing ***********
       *******************************************************************

 --------------------------------------------------------------------------------
   Overall default print level:    0
   Print level for DALTON.STAT:    1

    HERMIT 1- and 2-electron integral sections will be executed
    "Old" integral transformation used (limited to max 255 basis functions)
    Wave function sections will be executed (SIRIUS module)
 --------------------------------------------------------------------------------


   ****************************************************************************
   *************** Output of molecule and basis set information ***************
   ****************************************************************************


    The two title cards from your ".mol" input:
    --------------------------------------------------------------------------------
 1: Phosgene CCl2O using the STO-3G basis
 2: Using automatic symmetry detection
    --------------------------------------------------------------------------------

  Coordinates are entered in Angstrom and converted to atomic units.
          - Conversion factor : 1 bohr = 0.52917721080 A

  Atomic type no.    1
  --------------------
  Nuclear charge:   8.00000
  Number of symmetry independent centers:    1
  Number of basis sets to read;    2
  Basis set file used for this atomic type with Z =   8 :
     "/home/vdwv/DIPLOM_ITMO/CALCULATIONS_AND_SOFTS/softwares/Dalton_Shenanigans/dalton/dalton/build/basis/STO-3G"

  Atomic type no.    2
  --------------------
  Nuclear charge:   6.00000
  Number of symmetry independent centers:    1
  Number of basis sets to read;    2
  Basis set file used for this atomic type with Z =   6 :
     "/home/vdwv/DIPLOM_ITMO/CALCULATIONS_AND_SOFTS/softwares/Dalton_Shenanigans/dalton/dalton/build/basis/STO-3G"

  Atomic type no.    3
  --------------------
  Nuclear charge:  17.00000
  Number of symmetry independent centers:    2
  Number of basis sets to read;    2
  Basis set file used for this atomic type with Z =  17 :
     "/home/vdwv/DIPLOM_ITMO/CALCULATIONS_AND_SOFTS/softwares/Dalton_Shenanigans/dalton/dalton/build/basis/STO-3G"


                      SYMADD: Addition of symmetry requested
                      --------------------------------------

 Symmetry test threshold:  5.00E-06

@  The molecule has been centered at center of mass and rotated
@  so the principal axes of inertia are along coordinate axes.

 Symmetry class found: C(2v)          

 Symmetry Independent Centres             
 ----------------------------
Cl2   17 :      0.00000000     2.86482481     0.94613875  Isotope  1
O      8 :      0.00000000     0.00000000    -3.35676763  Isotope  1
C      6 :      0.00000000     0.00000000    -1.03996341  Isotope  1

 The following symmetry elements were found:   X  Y     


                         SYMGRP: Point group information
                         -------------------------------

@    Full point group is: C(2v)          
@    Represented as:      C2v

@  * The irrep name for each symmetry:    1: A1     2: B1     3: B2     4: A2 

   * The point group was generated by:

      Reflection in the yz-plane
      Reflection in the xz-plane

   * Group multiplication table

        |  E   C2z  Oxz  Oyz
   -----+--------------------
     E  |  E   C2z  Oxz  Oyz
    C2z | C2z   E   Oyz  Oxz
    Oxz | Oxz  Oyz   E   C2z
    Oyz | Oyz  Oxz  C2z   E 

   * Character table

        |  E   C2z  Oxz  Oyz
   -----+--------------------
    A1  |   1    1    1    1
    B1  |   1   -1    1   -1
    B2  |   1   -1   -1    1
    A2  |   1    1   -1   -1

   * Direct product table

        | A1   B1   B2   A2 
   -----+--------------------
    A1  | A1   B1   B2   A2 
    B1  | B1   A1   A2   B2 
    B2  | B2   A2   A1   B1 
    A2  | A2   B2   B1   A1 


                                 Isotopic Masses
                                 ---------------

                           O          15.994915
                           C          12.000000
                           Cl2 _1     34.968853
                           Cl2 _2     34.968853

                       Total mass:    97.932621 amu
                       Natural abundance:  56.643 %

 Center-of-mass coordinates (a.u.):    0.000000    0.000000   -0.000000
 Center-of-mass coordinates (Angs):    0.000000    0.000000   -0.000000


  Atoms and basis sets
  --------------------

  Number of atom types :    3
  Total number of atoms:    4

  Basis set used is "STO-3G" from the basis set library.

  label    atoms   charge   prim   cont     basis
  ----------------------------------------------------------------------
  O           1    8.0000    15     5      [6s3p|2s1p]                                        
  C           1    6.0000    15     5      [6s3p|2s1p]                                        
  Cl          2   17.0000    27     9      [9s6p|3s2p]                                        
  ----------------------------------------------------------------------
  total:      4   48.0000    84    28
  ----------------------------------------------------------------------
  Spherical harmonic basis used.

  Threshold for neglecting AO integrals:  1.00D-12


  Cartesian Coordinates (bohr)
  ----------------------------

  Total number of coordinates:   12
  O       :     1  x   0.0000000000    2  y   0.0000000000    3  z  -3.3567676348
  C       :     4  x   0.0000000000    5  y   0.0000000000    6  z  -1.0399634056
  Cl2 / 1 :     7  x   0.0000000000    8  y   2.8648248055    9  z   0.9461387518
  Cl2 / 2 :    10  x   0.0000000000   11  y  -2.8648248055   12  z   0.9461387518


  Cartesian Coordinates (xyz format; angstrom)
  --------------------------------------------

    4

  O        0.0000000000            0.0000000000           -1.7763249343
  C        0.0000000000            0.0000000000           -0.5503249343
 Cl        0.0000000000            1.5160000000            0.5006750657
 Cl        0.0000000000           -1.5160000000            0.5006750657


  Symmetry Coordinates
  --------------------

  Number of coordinates in each symmetry:     4    3    4    1

  Symmetry  A1  ( 1)

    1   O     z    3
    2   C     z    6
    3   Cl2   y    [  8  -   11 ]/2
    4   Cl2   z    [  9  +   12 ]/2

  Symmetry  B1  ( 2)

    5   O     x    1
    6   C     x    4
    7   Cl2   x    [  7  +   10 ]/2

  Symmetry  B2  ( 3)

    8   O     y    2
    9   C     y    5
   10   Cl2   y    [  8  +   11 ]/2
   11   Cl2   z    [  9  -   12 ]/2

  Symmetry  A2  ( 4)

   12   Cl2   x    [  7  -   10 ]/2


   Interatomic separations (in Angstrom):
   --------------------------------------

            O           C           Cl2 _1      Cl2 _2
            ------      ------      ------      ------
 O     :    0.000000
 C     :    1.226000    0.000000
 Cl2 _1:    2.735505    1.844683    0.000000
 Cl2 _2:    2.735505    1.844683    3.032000    0.000000


  Max    interatomic separation is    3.0320 Angstrom (    5.7296 Bohr)
  between atoms    4 and    3, "Cl2 _2" and "Cl2 _1".

  Min YX interatomic separation is    1.2260 Angstrom (    2.3168 Bohr)


  Bond distances (Angstrom):
  --------------------------

                  atom 1     atom 2       distance
                  ------     ------       --------
  bond distance:  C          O            1.226000
  bond distance:  Cl2 _1     C            1.844683
  bond distance:  Cl2 _2     C            1.844683


  Bond angles (degrees):
  ----------------------

                  atom 1     atom 2     atom 3         angle
                  ------     ------     ------         -----
  bond angle:     O          C          Cl2 _1       124.732
  bond angle:     O          C          Cl2 _2       124.732
  bond angle:     Cl2 _1     C          Cl2 _2       110.535




 Principal moments of inertia (u*A**2) and principal axes
 --------------------------------------------------------

   IA      71.635201          0.000000    1.000000    0.000000
   IB     160.734752          0.000000    0.000000    1.000000
   IC     232.369953          1.000000    0.000000    0.000000


 Rotational constants
 --------------------

@    The molecule is planar.

               A                   B                   C

           7054.8976           3144.1801           2174.8896 MHz
            0.235326            0.104879            0.072547 cm-1


@  Nuclear repulsion energy :  182.296060023862 Hartree


  Symmetry Orbitals
  -----------------

  Number of orbitals in each symmetry:          13    4    9    2


  Symmetry  A1 ( 1)

    1     O        1s         1
    2     O        1s         2
    3     O        2pz        5
    4     C        1s         6
    5     C        1s         7
    6     C        2pz       10
    7     Cl2      1s        11 +   12
    8     Cl2      1s        13 +   14
    9     Cl2      1s        15 +   16
   10     Cl2      2py       19 -   20
   11     Cl2      2pz       21 +   22
   12     Cl2      2py       25 -   26
   13     Cl2      2pz       27 +   28


  Symmetry  B1 ( 2)

   14     O        2px        3
   15     C        2px        8
   16     Cl2      2px       17 +   18
   17     Cl2      2px       23 +   24


  Symmetry  B2 ( 3)

   18     O        2py        4
   19     C        2py        9
   20     Cl2      1s        11 -   12
   21     Cl2      1s        13 -   14
   22     Cl2      1s        15 -   16
   23     Cl2      2py       19 +   20
   24     Cl2      2pz       21 -   22
   25     Cl2      2py       25 +   26
   26     Cl2      2pz       27 -   28


  Symmetry  A2 ( 4)

   27     Cl2      2px       17 -   18
   28     Cl2      2px       23 -   24

  Symmetries of electric field:  B1 (2)  B2 (3)  A1 (1)

  Symmetries of magnetic field:  B2 (3)  B1 (2)  A2 (4)


                     .---------------------------------------.
                     | Starting in Integral Section (HERMIT) |
                     `---------------------------------------'



 ***************************************************************************************
 ****************** Output from **INTEGRALS input processing (HERMIT) ******************
 ***************************************************************************************


 - Using defaults, no **INTEGRALS input found

 Default print level:        1

 Calculation of one- and two-electron Hamiltonian integrals.

 Center of mass  (bohr):      0.000000000000      0.000000000000     -0.000000000000
 Operator center (bohr):      0.000000000000      0.000000000000      0.000000000000
 Gauge origin    (bohr):      0.000000000000      0.000000000000     -0.000000000000
 Dipole origin   (bohr):      0.000000000000      0.000000000000     -0.000000000000

Calculation of 2-electron integrals are postponed until they are needed.


     ************************************************************************
     ************************** Output from HERINT **************************
     ************************************************************************



                      Nuclear contribution to dipole moments
                      --------------------------------------

                 au               Debye          C m (/(10**-30)

      z     -0.92520395        -2.35163372        -7.84420575


  Total CPU  time used in HERMIT:   0.02 seconds
  Total wall time used in HERMIT:   0.02 seconds


                        .----------------------------------.
                        | End of Integral Section (HERMIT) |
                        `----------------------------------'



                   .--------------------------------------------.
                   | Starting in Wave Function Section (SIRIUS) |
                   `--------------------------------------------'


 *** Output from Huckel module :

     Using EWMO model:          F
     Using EHT  model:          T
     Number of Huckel orbitals each symmetry:   16    6   12    4

 Huckel EHT eigenvalues for symmetry :  1
         -104.886083     -20.703736     -11.368243     -10.616507      -8.073496
           -8.072302      -1.485498      -1.208719      -0.770132      -0.598046
           -0.510296      -0.332419      -0.207771      -0.056276      -0.052904
           -0.034359

HUCDRV: reduced number of huckel orbitals in sym 1 from 16 to 13

 Huckel EHT eigenvalues for symmetry :  2
           -8.072390      -0.694254      -0.531616      -0.323399      -0.056201
           -0.050130

HUCDRV: reduced number of huckel orbitals in sym 2 from 6 to 4

 Huckel EHT eigenvalues for symmetry :  3
         -104.886475     -10.616513      -8.073111      -8.072079      -1.131114
           -0.675153      -0.501324      -0.466010      -0.251908      -0.054916
           -0.051825      -0.046921

HUCDRV: reduced number of huckel orbitals in sym 3 from 12 to 9

 Huckel EHT eigenvalues for symmetry :  4
           -8.072197      -0.493069      -0.055302      -0.053966

HUCDRV: reduced number of huckel orbitals in sym 4 from 4 to 2

 **********************************************************************
 *SIRIUS* a direct, restricted step, second order MCSCF program       *
 **********************************************************************

 
     Date and time (Linux)  : Thu May  7 16:57:08 2026
     Host name              : debian                                  

 Title lines from ".mol" input file:
     Phosgene CCl2O using the STO-3G basis
     Using automatic symmetry detection

 Print level on unit LUPRI =   2 is   0
 Print level on unit LUW4  =   2 is   5

@    Restricted, closed shell Kohn-Sham DFT calculation.

 Initial molecular orbitals are obtained according to
 ".MOSTART EHT   " input option

     Wave function specification
     ============================
@    Wave function type        --- KS-DFT ---
@    Number of closed shell electrons          48
@    Number of electrons in active shells       0
@    Total charge of the molecule               0

@    Spin multiplicity and 2 M_S                1         0
@    Total number of symmetries                 4 (point group: C2v)
@    Reference state symmetry                   1 (irrep name : A1 )
 
     This is a DFT calculation of type: B3LYP
 Weighted mixed functional:
               HF exchange:    0.20000
                       VWN:    0.19000
                       LYP:    0.81000
                     Becke:    0.72000
                    Slater:    0.80000

     Orbital specifications
     ======================
@    Abelian symmetry species          All |    1    2    3    4
@                                          |  A1   B1   B2   A2 
                                       --- |  ---  ---  ---  ---
@    Total number of orbitals           28 |   13    4    9    2
@    Number of basis functions          28 |   13    4    9    2

      ** Automatic occupation of RKS orbitals **

      -- Initial occupation of symmetries is determined from extended Huckel guess.           
      -- Initial occupation of symmetries is :
@    Occupied SCF orbitals              24 |   11    3    8    2

     Maximum number of Fock   iterations      0
     Maximum number of DIIS   iterations     60
     Maximum number of QC-SCF iterations     60
     Threshold for SCF convergence     1.00D-05
 
     This is a DFT calculation of type: B3LYP
 Weighted mixed functional:
               HF exchange:    0.20000
                       VWN:    0.19000
                       LYP:    0.81000
                     Becke:    0.72000
                    Slater:    0.80000


 ***********************************************
 ***** DIIS acceleration of SCF iterations *****
 ***********************************************

 C1-DIIS algorithm; max error vectors =    8

 Automatic occupation of symmetries with  48 electrons.

 Iter     Total energy    Error norm  Delta(E)    SCF occupation
 -----------------------------------------------------------------------------

---> (Re)generating AOTWOINT


     ************************************************************************
     ************************** Output from HERINT **************************
     ************************************************************************


***  INFO  GETGAB: GABSO--- not found on AOGABINT. Regenerating.

 Threshold for neglecting two-electron integrals:  1.00D-12
 HERMIT - Number of two-electron integrals written:       19960 ( 24.2% )
 HERMIT - Megabytes written:                              0.275

      K-S energy, electrons, error :    -56.518362220944  47.9999977891   -2.21D-06
@  1  -1021.58931193       2.72D+00  -1.02D+03    11   3   8   2
      Virial theorem: -V/T =      2.017665
@    MULPOP   O      -0.82; C       1.03; Cl2 _1 -0.10; Cl2 _2 -0.10; 
   1  Level shift: doubly occupied orbital energies shifted by -2.00D-01
 -----------------------------------------------------------------------------
      K-S energy, electrons, error :    -56.176775216013  47.9999977065   -2.29D-06
@  2  -1021.00245834       4.03D+00   5.87D-01    11   3   8   2
      Virial theorem: -V/T =      2.019199
@    MULPOP   O       1.62; C      -1.28; Cl2 _1 -0.17; Cl2 _2 -0.17; 
   2  Level shift: doubly occupied orbital energies shifted by -2.00D-01
 -----------------------------------------------------------------------------
      K-S energy, electrons, error :    -56.311174200162  47.9999977902   -2.21D-06
@  3  -1021.95853657       5.41D-01  -9.56D-01    11   3   8   2
      Virial theorem: -V/T =      2.019670
@    MULPOP   O       0.11; C      -0.02; Cl2 _1 -0.05; Cl2 _2 -0.05; 
   3  Level shift: doubly occupied orbital energies shifted by -5.00D-02
 -----------------------------------------------------------------------------
      K-S energy, electrons, error :    -56.341576980228  47.9999977987   -2.20D-06
@  4  -1021.97878814       1.21D-01  -2.03D-02    11   3   8   2
      Virial theorem: -V/T =      2.019534
@    MULPOP   O      -0.07; C       0.29; Cl2 _1 -0.11; Cl2 _2 -0.11; 
   4  Level shift: doubly occupied orbital energies shifted by -1.25D-02
 -----------------------------------------------------------------------------
      K-S energy, electrons, error :    -56.345493426994  47.9999977998   -2.20D-06
@  5  -1021.98030401       4.93D-02  -1.52D-03    11   3   8   2
      Virial theorem: -V/T =      2.019569
@    MULPOP   O      -0.11; C       0.23; Cl2 _1 -0.06; Cl2 _2 -0.06; 
 -----------------------------------------------------------------------------
      K-S energy, electrons, error :    -56.342156278537  47.9999977993   -2.20D-06
@  6  -1021.98051941       4.48D-03  -2.15D-04    11   3   8   2
      Virial theorem: -V/T =      2.019576
@    MULPOP   O      -0.09; C       0.22; Cl2 _1 -0.07; Cl2 _2 -0.07; 
 -----------------------------------------------------------------------------
      K-S energy, electrons, error :    -56.342459470604  47.9999977993   -2.20D-06
@  7  -1021.98052152       1.17D-04  -2.11D-06    11   3   8   2
      Virial theorem: -V/T =      2.019575
@    MULPOP   O      -0.09; C       0.22; Cl2 _1 -0.07; Cl2 _2 -0.07; 
 -----------------------------------------------------------------------------
      K-S energy, electrons, error :    -56.342464360666  47.9999977993   -2.20D-06
@  8  -1021.98052152       2.04D-05  -2.90D-09    11   3   8   2
      Virial theorem: -V/T =      2.019575
@    MULPOP   O      -0.09; C       0.22; Cl2 _1 -0.07; Cl2 _2 -0.07; 
 -----------------------------------------------------------------------------
      K-S energy, electrons, error :    -56.342465501033  47.9999977993   -2.20D-06
@  9  -1021.98052152       3.54D-06  -4.27D-11    11   3   8   2

@ *** DIIS converged in   9 iterations !
@     Converged SCF energy, gradient:  -1021.980521521976    3.54D-06
    - total time used in SIRFCK :              0.05 seconds


 *** SCF orbital energy analysis ***

 Number of electrons        :   48
 Closed shell orbitals      :   11    3    8    2

 Sym       Kohn-Sham orbital energies

1 A1   -100.50101307   -19.03831394   -10.21593645    -9.29629026    -7.07652701
         -7.06019610    -1.09051614    -0.82798141    -0.53734709    -0.42437509
         -0.29641325     0.00718048     0.51128676

2 B1     -7.06153167    -0.41694878    -0.28427603     0.00000459

3 B2   -100.50101558    -9.29647568    -7.07660437    -7.06053989    -0.77757701
         -0.45130847    -0.27285986    -0.26191547     0.15026113

4 A2     -7.06153010    -0.28515086

    E(LUMO) :     0.00000459 au (symmetry 2)
  - E(HOMO) :    -0.26191547 au (symmetry 3)
  ------------------------------------------
    gap     :     0.26192006 au

 --- Writing SIRIFC interface file

--------------------------------------------------------------------------------


     .-----------------------------------------------.
     | DFT KT IPs [a.u. & eV] from Koopmans' theorem |
     `-----------------------------------------------'


     DFT KT symmetry 1 ( A1 ) in point group C2v -- 11 principal poles with pole strength 1

   ============  ============  ============  ============  ============
     100.501013     19.038314     10.215936      9.296290      7.076527
    2734.771680    518.058875    277.989772    252.964926    192.562095
   ============  ============  ============  ============  ============

   ============  ============  ============  ============  ============
       7.060196      1.090516      0.827981      0.537347      0.424375
     192.117709     29.674454     22.530520     14.621958     11.547834
   ============  ============  ============  ============  ============

   ============
       0.296413
       8.065815
   ============

     DFT KT symmetry 2 ( B1 ) in point group C2v -- 3 principal poles with pole strength 1

   ============  ============  ============
       7.061532      0.416949      0.284276
     192.154051     11.345753      7.735544
   ============  ============  ============

     DFT KT symmetry 3 ( B2 ) in point group C2v -- 8 principal poles with pole strength 1

   ============  ============  ============  ============  ============
     100.501016      9.296476      7.076604      7.060540      0.777577
    2734.771749    252.969972    192.564200    192.127064     21.158947
   ============  ============  ============  ============  ============

   ============  ============  ============
       0.451308      0.272860      0.261915
      12.280728      7.424895      7.127082
   ============  ============  ============

     DFT KT symmetry 4 ( A2 ) in point group C2v -- 2 principal poles with pole strength 1

   ============  ============
       7.061530      0.285151
     192.154009      7.759350
   ============  ============

@ Summary of DFT KT ionization potentials [eV]:

@ Symmetry 1 (A1 ) :  2734.772     518.059     277.990     252.965     192.562
@                      192.118      29.674      22.531      14.622      11.548
@                        8.066

@ Symmetry 2 (B1 ) :   192.154      11.346       7.736

@ Symmetry 3 (B2 ) :  2734.772     252.970     192.564     192.127      21.159
@                       12.281       7.425       7.127

@ Symmetry 4 (A2 ) :   192.154       7.759

  === End of DFT KT output ===
--------------------------------------------------------------------------------


 CPU and wall time for SCF :       1.595       1.597


                       .-----------------------------------.
                       | --- Final results from SIRIUS --- |
                       `-----------------------------------'


@    Spin multiplicity:           1
@    Spatial symmetry:            1 ( irrep  A1  in C2v )
@    Total charge of molecule:    0

@    Final DFT energy:          -1021.980521521976                 
@    Nuclear repulsion:           182.296060023862
@    Electronic energy:         -1204.276581545838

@    Final gradient norm:           0.000003538450

 
     Date and time (Linux)  : Thu May  7 16:57:10 2026
     Host name              : debian                                  

File label for MO orbitals:   7May26   FOCKDIIS

 (Only coefficients > 0.0100 are printed.)

 Molecular orbitals for symmetry species 1  (A1 )
 ------------------------------------------------

    Orbital         1        2        3        4        5        6        7
   1 O   :1s     0.0000   0.9936   0.0005  -0.0001   0.0001   0.0002  -0.2119
   2 O   :1s    -0.0000   0.0291  -0.0077   0.0004  -0.0004  -0.0019   0.7312
   3 O   :2pz   -0.0000   0.0062  -0.0030   0.0004  -0.0003  -0.0013   0.2176
   4 C   :1s    -0.0001   0.0007   0.9915   0.0031  -0.0024  -0.0002  -0.1291
   5 C   :1s     0.0005  -0.0083   0.0359  -0.0118   0.0155   0.0012   0.2993
   6 C   :2pz    0.0003   0.0077  -0.0019  -0.0059   0.0077  -0.0048  -0.1650
   7 Cl2 :1s     0.7031   0.0000   0.0002  -0.2664  -0.0032  -0.0001   0.0057
   8 Cl2 :1s     0.0114  -0.0000  -0.0005   0.7434   0.0092   0.0003  -0.0192
   9 Cl2 :1s    -0.0014   0.0001  -0.0047   0.0367  -0.0034  -0.0000   0.0546
  10 Cl2 :2py   -0.0001  -0.0000  -0.0004  -0.0061   0.5779  -0.3921   0.0073
  11 Cl2 :2pz   -0.0000   0.0001  -0.0003  -0.0043   0.3914   0.5787   0.0064
  12 Cl2 :2py    0.0001   0.0001   0.0039  -0.0030   0.0304  -0.0179  -0.0210
  13 Cl2 :2pz    0.0001  -0.0004   0.0030  -0.0023   0.0207   0.0264  -0.0164

    Orbital         8        9       10       11       12       13
   1 O   :1s     0.0618   0.0963   0.1038   0.0071   0.0154  -0.1140
   2 O   :1s    -0.2352  -0.4375  -0.5224  -0.0352  -0.0772   0.8432
   3 O   :2pz   -0.0110   0.2454   0.5883   0.1972  -0.2367   0.9328
   4 C   :1s    -0.0831  -0.1727  -0.0195  -0.0007  -0.1842   0.1103
   5 C   :1s     0.2499   0.6318   0.0352  -0.0155   0.9147  -0.7305
   6 C   :2pz    0.1754   0.1343  -0.4373  -0.0451   0.4553   1.1367
   7 Cl2 :1s     0.0535  -0.0343   0.0108   0.0004  -0.0148  -0.0017
   8 Cl2 :1s    -0.1763   0.1087  -0.0335  -0.0012   0.0425   0.0035
   9 Cl2 :1s     0.5696  -0.4357   0.1487   0.0081  -0.2542  -0.0463
  10 Cl2 :2py    0.0338   0.0712  -0.0817   0.0808  -0.1528  -0.0283
  11 Cl2 :2pz    0.0182   0.0423  -0.0060  -0.1779  -0.0869   0.0155
  12 Cl2 :2py   -0.1022  -0.2261   0.2773  -0.2951   0.6090   0.1242
  13 Cl2 :2pz   -0.0558  -0.1337   0.0169   0.6444   0.3463  -0.0614

 Molecular orbitals for symmetry species 2  (B1 )
 ------------------------------------------------

    Orbital         1        2        3        4
   1 O   :2px    0.0006   0.5619  -0.4742   0.7098
   2 C   :2px   -0.0046   0.5994  -0.0846  -0.8374
   3 Cl2 :2px    0.6989  -0.0728  -0.1757  -0.0653
   4 Cl2 :2px    0.0324   0.2533   0.6391   0.2518

 Molecular orbitals for symmetry species 3  (B2 )
 ------------------------------------------------

    Orbital         1        2        3        4        5        6        7
   1 O   :2py   -0.0000   0.0009  -0.0010  -0.0001   0.0458   0.4003   0.3773
   2 C   :2py    0.0004  -0.0091   0.0115  -0.0029   0.1683   0.5215  -0.0116
   3 Cl2 :1s     0.7031  -0.2664  -0.0033   0.0001   0.0616  -0.0211   0.0002
   4 Cl2 :1s     0.0114   0.7434   0.0093  -0.0001  -0.2022   0.0654  -0.0005
   5 Cl2 :1s    -0.0014   0.0368  -0.0034   0.0001   0.6752  -0.2865   0.0015
   6 Cl2 :2py   -0.0001  -0.0061   0.5803   0.3883   0.0204   0.0716  -0.1739
   7 Cl2 :2pz   -0.0000  -0.0043   0.3878  -0.5810   0.0194   0.0850   0.0744
   8 Cl2 :2py    0.0001  -0.0032   0.0305   0.0181  -0.0659  -0.2350   0.6320
   9 Cl2 :2pz    0.0001  -0.0021   0.0204  -0.0273  -0.0618  -0.2846  -0.2712

    Orbital         8        9
   1 O   :2py    0.7024   0.5014
   2 C   :2py    0.0632  -1.0185
   3 Cl2 :1s     0.0003   0.0140
   4 Cl2 :1s    -0.0013  -0.0391
   5 Cl2 :1s    -0.0028   0.2555
   6 Cl2 :2py   -0.0035   0.0904
   7 Cl2 :2pz   -0.1465   0.0886
   8 Cl2 :2py    0.0151  -0.3767
   9 Cl2 :2pz    0.5346  -0.3669

 Molecular orbitals for symmetry species 4  (A2 )
 ------------------------------------------------

    Orbital         1        2
   1 Cl2 :2px    0.6989  -0.2008
   2 Cl2 :2px    0.0323   0.7288

  Total CPU  time used in SIRIUS :   1.60 seconds
  Total wall time used in SIRIUS :   1.60 seconds

 
     Date and time (Linux)  : Thu May  7 16:57:10 2026
     Host name              : debian                                  


                     .---------------------------------------.
                     | End of Wave Function Section (SIRIUS) |
                     `---------------------------------------'

  Total CPU  time used in DALTON:   1.63 seconds
  Total wall time used in DALTON:   1.63 seconds

 
     Date and time (Linux)  : Thu May  7 16:57:10 2026
     Host name              : debian                                  
