

     ************************************************************************
     *************** Dalton - An Electronic Structure Program ***************
     ************************************************************************

    This is output from DALTON release Dalton2025.0-dev (2025)
         ( Web site: http://daltonprogram.org )

   ----------------------------------------------------------------------------

    NOTE:
     
    Dalton is an experimental code for the evaluation of molecular
    properties using (MC)SCF, DFT, CI, and CC wave functions.
    The authors accept no responsibility for the performance of
    the code or for the correctness of the results.
     
    The code (in whole or part) is provided under a licence and
    is not to be reproduced for further distribution without
    the written permission of the authors or their representatives.
     
    See the home page "http://daltonprogram.org" for further information.
     
    If results obtained with this code are published,
    the appropriate citations would be both of:
     
       K. Aidas, C. Angeli, K. L. Bak, V. Bakken,
       R. Bast, L. Boman, O. Christiansen, R. Cimiraglia,
       S. Coriani, P. Dahle, E. K. Dalskov, U. Ekstroem,
       T. Enevoldsen, J. J. Eriksen, P. Ettenhuber, B. Fernandez,
       L. Ferrighi, H. Fliegl, L. Frediani, K. Hald, A. Halkier,
       C. Haettig, H. Heiberg, T. Helgaker, A. C. Hennum,
       H. Hettema, E. Hjertenaes, S. Hoest, I.-M. Hoeyvik,
       M. F. Iozzi, B. Jansik, H. J. Aa. Jensen, D. Jonsson,
       P. Joergensen, J. Kauczor, S. Kirpekar,
       T. Kjaergaard, W. Klopper, S. Knecht, R. Kobayashi, H. Koch,
       J. Kongsted, A. Krapp, K. Kristensen, A. Ligabue,
       O. B. Lutnaes, J. I. Melo, K. V. Mikkelsen, R. H. Myhre,
       C. Neiss, C. B. Nielsen, P. Norman, J. Olsen,
       J. M. H. Olsen, A. Osted, M. J. Packer, F. Pawlowski,
       T. B. Pedersen, P. F. Provasi, S. Reine, Z. Rinkevicius,
       T. A. Ruden, K. Ruud, V. Rybkin, P. Salek, C. C. M. Samson,
       A. Sanchez de Meras, T. Saue, S. P. A. Sauer,
       B. Schimmelpfennig, K. Sneskov, A. H. Steindal,
       K. O. Sylvester-Hvid, P. R. Taylor, A. M. Teale,
       E. I. Tellgren, D. P. Tew, A. J. Thorvaldsen, L. Thoegersen,
       O. Vahtras, M. A. Watson, D. J. D. Wilson, M. Ziolkowski
       and H. Agren,
       "The Dalton quantum chemistry program system",
       WIREs Comput. Mol. Sci. 2014, 4:269-284 (doi: 10.1002/wcms.1172)
     
    and
     
       Dalton, a molecular electronic structure program,
       Release Dalton2025.0-dev (2025), see http://daltonprogram.org
   ----------------------------------------------------------------------------

    Authors in alphabetical order (Major contribution(s) in parenthesis):

  Kestutis Aidas,              Vilnius University,        Lithuania   (QM/MM)
  Celestino Angeli,            University of Ferrara,     Italy       (NEVPT2)
  Juan J. Aucar,               Northeast National UniversiArgentina   (LRESC, Relativistic Effects on NMR Shieldings and EFG)
  Keld L. Bak,                 UNI-C,                     Denmark     (AOSOPPA, non-adiabatic coupling, magnetic properties)
  Vebjoern Bakken,             University of Oslo,        Norway      (DALTON; geometry optimizer, symmetry detection)
  Radovan Bast,                UiT The Arctic U. of NorwayNorway      (DALTON installation and execution frameworks)
  Pablo Baudin,                University of Valencia,    Spain       (Cholesky excitation energies)
  Linus Boman,                 NTNU,                      Norway      (Cholesky decomposition and subsystems)
  Bruno N. Cabral Tenorio,     Technical Univ. of Denmark,Denmark     (Lanczos-based CC methods)
  Ove Christiansen,            Aarhus University,         Denmark     (CC module)
  Renzo Cimiraglia,            University of Ferrara,     Italy       (NEVPT2)
  Sonia Coriani,               Technical Univ. of Denmark,Denmark     (CC and RESPONS modules)
  Janusz Cukras,               University of Warsaw,      Poland      (MChD in RESPONS)
  Paal Dahle,                  University of Oslo,        Norway      (Parallelization)
  Erik K. Dalskov,             UNI-C,                     Denmark     (SOPPA)
  Thomas Enevoldsen,           Univ. of Southern Denmark, Denmark     (SOPPA)
  Janus J. Eriksen,            Aarhus University,         Denmark     (Polarizable embedding, TDA)
  Rasmus Faber,                Technical Univ. of Denmark,Denmark     (Vib.avg. NMR w. SOPPA, parallel AO-SOPPA, CVS-CC and EOMCC)
  Tobias Fahleson,             KTH Stockholm,             Sweden      (Damped cubic response)
  Berta Fernandez,             U. of Santiago de CompostelSpain       (Doublet spin, ESR in RESPONS)
  Lara Ferrighi,               Aarhus University,         Denmark     (PCM Cubic response)
  Heike Fliegl,                University of Oslo,        Norway      (CCSD(R12))
  Luca Frediani,               UiT The Arctic U. of NorwayNorway      (PCM)
  Emmanuel Fromager,           Univ. Strasbourg,          France      (MC-srDFT)
  Bin Gao,                     UiT The Arctic U. of NorwayNorway      (Gen1Int library)
  Andre S. P. Gomes,           CNRS/Universite de Lille,  France      (Frozen density embedding)
  Christof Haettig,            Ruhr-University Bochum,    Germany     (CC module)
  Kasper Hald,                 Aarhus University,         Denmark     (CC module)
  Asger Halkier,               Aarhus University,         Denmark     (CC module)
  Frederik Beyer Hansen,       University of Copenhagen,  Denmark     (Parallel AO-SOPPA)
  Erik D. Hedegaard,           Univ. of Southern Denmark, Denmark     (Polarizable embedding, QM/MM, and MC-srDFT)
  Hanne Heiberg,               University of Oslo,        Norway      (Geometry analysis, selected one-electron integrals)
  Trygve Helgaker,             University of Oslo,        Norway      (DALTON; ABACUS, ERI, DFT modules, London, and much more)
  Alf Christian Hennum,        University of Oslo,        Norway      (Parity violation)
  Hinne Hettema,               University of Auckland,    New Zealand (Quadratic response in RESPONS; SIRIUS supersymmetry)
  Andreas E. Hillers-Bendtsen, University of Copenhagen,  Denmark     (MP3)
  Eirik Hjertenaes,            NTNU,                      Norway      (Cholesky decomposition)
  Nicolai Machholdt Hoeyer,    Aarhus University,         Denmark     (MP3)
  Pi A. B. Haase,              University of Copenhagen,  Denmark     (Triplet AO-SOPPA)
  Maria Francesca Iozzi,       University of Oslo,        Norway      (RPA)
  Christoph Jacob,             TU Braunschweig            Germany     (Frozen density embedding)
  Brano Jansik,                Technical Univ. of Ostrava Czech Rep.  (DFT cubic response)
  Hans Joergen Aa. Jensen,     Univ. of Southern Denmark, Denmark     (DALTON; SIRIUS, RESPONS, ABACUS, MC-srDFT, and much more)
  Dan Jonsson,                 UiT The Arctic U. of NorwayNorway      (Cubic response in RESPONS module)
  Poul Joergensen,             Aarhus University,         Denmark     (RESPONS, ABACUS, and CC modules)
  Maciej Kaminski,             University of Warsaw,      Poland      (CPPh in RESPONS)
  Joanna Kauczor,              Linkoeping University,     Sweden      (Complex polarization propagator (CPP) module)
  Sheela Kirpekar,             Univ. of Southern Denmark, Denmark     (Mass-velocity & Darwin integrals)
  Frederik Oersted Kjeldal,    Technical Univ. of Denmark,Denmark     (MP3)
  Erik Kjellgren,              Univ. of Southern Denmark, Denmark     (MC-srDFT)
  Wim Klopper,                 KIT Karlsruhe,             Germany     (R12 code in CC, SIRIUS, and ABACUS modules)
  Stefan Knecht,               ETH Zurich,                Switzerland (Parallel CI and MCSCF, MC-srDFT)
  Rika Kobayashi,              Australian National Univ., Australia   (DIIS in CC, London in MCSCF)
  Henrik Koch,                 NTNU,                      Norway      (CC module, Cholesky decomposition)
  Jacob Kongsted,              Univ. of Southern Denmark, Denmark     (Polarizable embedding, polarizable density embedding, QM/MM)
  Andrea Ligabue,              University of Modena,      Italy       (CTOCD, AOSOPPA)
  Nanna H. List,               Univ. of Southern Denmark, Denmark     (Polarizable embedding)
  Ola B. Lutnaes,              University of Oslo,        Norway      (DFT Hessian)
  Juan I. Melo,                University of Buenos Aires,Argentina   (LRESC, Relativistic Effects on NMR Shieldings)
  Kurt V. Mikkelsen,           University of Copenhagen,  Denmark     (MC-SCRF, QM/MM, and MP3)
  Rolf H. Myhre,               NTNU,                      Norway      (Subsystems and CC3)
  Christian Neiss,             Univ. Erlangen-Nuernberg,  Germany     (CCSD(R12))
  Christian B. Nielsen,        University of Copenhagen,  Denmark     (QM/MM)
  Patrick Norman,              KTH Stockholm,             Sweden      (Cubic response and complex frequency response in RESPONS)
  Jeppe Olsen,                 Aarhus University,         Denmark     (SIRIUS CI/density modules)
  Jogvan Magnus H. Olsen,      Aarhus University,         Denmark     (Polarizable embedding and polarizable density embedding)
  Anders Osted,                Copenhagen University,     Denmark     (QM/MM)
  Martin J. Packer,            University of Sheffield,   UK          (SOPPA)
  Filip Pawlowski,             Kazimierz Wielki UniversityPoland      (CC3)
  Morten N. Pedersen,          Univ. of Southern Denmark, Denmark     (Polarizable embedding)
  Thomas B. Pedersen,          University of Oslo,        Norway      (Cholesky decomposition)
  Patricio F. Provasi,         University of Northeastern,Argentina   (Analysis of coupling constants in localized orbitals)
  Peter Reinholdt,             Univ. of Southern Denmark, Denmark     (Polarizable embedding and polarizable density embedding)
  Zilvinas Rinkevicius,        KTH Stockholm,             Sweden      (open-shell DFT, ESR)
  Elias Rudberg,               KTH Stockholm,             Sweden      (DFT grid and basis info)
  Torgeir A. Ruden,            University of Oslo,        Norway      (Numerical derivatives in ABACUS)
  Kenneth Ruud,                UiT The Arctic U. of NorwayNorway      (DALTON; ABACUS magnetic properties and much more)
  Pawel Salek,                 KTH Stockholm,             Sweden      (DALTON; DFT code)
  Claire C. M. Samson,         University of Karlsruhe    Germany     (Boys localization, r12 integrals in ERI)
  Alfredo Sanchez de Meras,    University of Valencia,    Spain       (CC module, Cholesky decomposition)
  Trond Saue,                  Paul Sabatier University,  France      (direct Fock matrix construction)
  Stephan P. A. Sauer,         University of Copenhagen,  Denmark     (SOPPA(CCSD), SOPPA prop., AOSOPPA, vibrational g-factors)
  Bernd Schimmelpfennig,       Forschungszentrum KarlsruheGermany     (AMFI module)
  Anna K. Schnack-Petersen,    University of Copenhagen,  Denmark     (RPA(D) and HRPA(D) properties in AOSOPPA)
  Kristian Sneskov,            Aarhus University,         Denmark     (Polarizable embedding, QM/MM)
  Arnfinn H. Steindal,         UiT The Arctic U. of NorwayNorway      (parallel QM/MM, polarizable embedding)
  Casper Steinmann,            Aalborg University,        Denmark     (QFIT, polarizable embedding)
  K. O. Sylvester-Hvid,        University of Copenhagen,  Denmark     (MC-SCRF)
  Peter R. Taylor,             VLSCI/Univ. of Melbourne,  Australia   (Symmetry handling ABACUS, integral transformation)
  Andrew M. Teale,             University of Nottingham,  England     (DFT-AC, DFT-D)
  David P. Tew,                University of Bristol,     England     (CCSD(R12))
  Julien Toulouse,             Sorbonne Univ.,            France      (MC-srDFT)
  Olav Vahtras,                KTH Stockholm,             Sweden      (Triplet response, spin-orbit, ESR, TDDFT, open-shell DFT)
  Lucas Visscher,              Vrije Universiteit AmsterdaNetherlands (Frozen density embedding)
  David J. Wilson,             La Trobe University,       Australia   (DFT Hessian and DFT magnetizabilities)
  Luna Zamok,                  University of Copenhagen,  Denmark     (Block Lanczos RPA solver in SOPPA module)
  Hans Agren,                  KTH Stockholm,             Sweden      (SIRIUS module, RESPONS, MC-SCRF solvation)
 --------------------------------------------------------------------------------

     Date and time (Linux)  : Thu May  7 16:34:27 2026
     Host name              : debian                                  

 * Work memory size             :    64000000 =  488.28 megabytes.

 * Directories for basis set searches:
   1) /home/vdwv/DIPLOM_ITMO/CALCULATIONS_AND_SOFTS/softwares/Dalton_Shenanigans/dalton/dalton/build/diplom_files/ch4/dft/ch4_dft_b3lyp_ccpvtz
   2) /home/vdwv/DIPLOM_ITMO/CALCULATIONS_AND_SOFTS/softwares/Dalton_Shenanigans/dalton/dalton/build/basis


Compilation information
-----------------------

 Who compiled             | vdwv
 Host                     | debian
 System                   | Linux-6.12.73+deb13-amd64
 CMake generator          | Unix Makefiles
 Processor                | x86_64
 64-bit integers          | OFF
 MPI                      | OFF
 Fortran compiler         | /usr/bin/gfortran
 Fortran compiler version | GNU Fortran (Debian 14.2.0-19) 14.2.0
 C compiler               | /usr/bin/gcc
 C compiler version       | gcc (Debian 14.2.0-19) 14.2.0
 C++ compiler             | /usr/bin/g++
 C++ compiler version     | g++ (Debian 14.2.0-19) 14.2.0
 BLAS                     | /opt/intel/oneapi/mkl/2025.3/lib/intel64/libmkl_gf
                          | _lp64.so;/opt/intel/oneapi/mkl/2025.3/lib/intel64/
                          | libmkl_sequential.so;/opt/intel/oneapi/mkl/2025.3/
                          | lib/intel64/libmkl_core.so;/usr/lib/x86_64-linux-g
                          | nu/libpthread.a;/usr/lib/x86_64-linux-gnu/libm.so
 LAPACK                   | /opt/intel/oneapi/mkl/2025.3/lib/intel64/libmkl_la
                          | pack95_lp64.a;/opt/intel/oneapi/mkl/2025.3/lib/int
                          | el64/libmkl_gf_lp64.so
 Static linking           | OFF
 Last Git revision        | 1892235f9264b9be21ec2fefe6e0081d659ab244
 Git branch               | master
 Configuration time       | 2026-05-04 17:50:26.788788

 * Sequential calculation.


   Content of the .dal input file
 ----------------------------------

BASIS
cc-pVTZ
Methane CH4 using the cc-pVTZ basis
Using automatic symmetry detection
AtomTypes=2 Angstrom
Charge=6.0 Atoms=1
C     0.000      0.000      0.000
Charge=1.0 Atoms=4
H1    0.628      0.628      0.628
H2   -0.628     -0.628      0.628
H3   -0.628      0.628     -0.628
H4    0.628     -0.628     -0.628

**DALTON INPUT
.RUN WAVE FUN
**WAVE FUN
.DFT
 B3LYP
**END OF



       *******************************************************************
       *********** Output from DALTON general input processing ***********
       *******************************************************************

 --------------------------------------------------------------------------------
   Overall default print level:    0
   Print level for DALTON.STAT:    1

    HERMIT 1- and 2-electron integral sections will be executed
    "Old" integral transformation used (limited to max 255 basis functions)
    Wave function sections will be executed (SIRIUS module)
 --------------------------------------------------------------------------------


   ****************************************************************************
   *************** Output of molecule and basis set information ***************
   ****************************************************************************


    The two title cards from your ".mol" input:
    --------------------------------------------------------------------------------
 1: Methane CH4 using the cc-pVTZ basis
 2: Using automatic symmetry detection
    --------------------------------------------------------------------------------

  Coordinates are entered in Angstrom and converted to atomic units.
          - Conversion factor : 1 bohr = 0.52917721080 A

  Atomic type no.    1
  --------------------
  Nuclear charge:   6.00000
  Number of symmetry independent centers:    1
  Number of basis sets to read;    2
  Basis set file used for this atomic type with Z =   6 :
     "/home/vdwv/DIPLOM_ITMO/CALCULATIONS_AND_SOFTS/softwares/Dalton_Shenanigans/dalton/dalton/build/basis/cc-pVTZ"

  Atomic type no.    2
  --------------------
  Nuclear charge:   1.00000
  Number of symmetry independent centers:    4
  Number of basis sets to read;    2
  Basis set file used for this atomic type with Z =   1 :
     "/home/vdwv/DIPLOM_ITMO/CALCULATIONS_AND_SOFTS/softwares/Dalton_Shenanigans/dalton/dalton/build/basis/cc-pVTZ"


                      SYMADD: Addition of symmetry requested
                      --------------------------------------

 Symmetry test threshold:  5.00E-06

@  The molecule has been centered at center of mass and rotated
@  so the principal axes of inertia are along coordinate axes.

 Symmetry class found: T(d)           

 Symmetry Independent Centres             
 ----------------------------
C      6 :      0.00000000     0.00000000     0.00000000  Isotope  1
H2     1 :      1.67831513    -0.96897569    -0.68516928  Isotope  1
H3     1 :      0.00000000     1.93795138    -0.68516928  Isotope  1
H4     1 :      0.00000000     0.00000000     2.05550784  Isotope  1

 The following symmetry element was found:   X        


                         SYMGRP: Point group information
                         -------------------------------

@    Full point group is: T(d)           
@    Represented as:      Cs 

@  * The irrep name for each symmetry:    1: A'     2: A" 

   * The point group was generated by:

      Reflection in the yz-plane

   * Group multiplication table

        |  E   Oyz
   -----+----------
     E  |  E   Oyz
    Oyz | Oyz   E 

   * Character table

        |  E   Oyz
   -----+----------
    A'  |   1    1
    A"  |   1   -1

   * Direct product table

        | A'   A" 
   -----+----------
    A'  | A'   A" 
    A"  | A"   A' 


                                 Isotopic Masses
                                 ---------------

                           C          12.000000
                           H2  _1      1.007825
                           H2  _2      1.007825
                           H3          1.007825
                           H4          1.007825

                       Total mass:    16.031300 amu
                       Natural abundance:  98.841 %

 Center-of-mass coordinates (a.u.):    0.000000   -0.000000    0.000000
 Center-of-mass coordinates (Angs):    0.000000   -0.000000    0.000000


  Atoms and basis sets
  --------------------

  Number of atom types :    2
  Total number of atoms:    5

  Basis set used is "cc-pVTZ" from the basis set library.

  label    atoms   charge   prim   cont     basis
  ----------------------------------------------------------------------
  C           1    6.0000    42    30      [10s5p2d1f|4s3p2d1f]                               
  H4          4    1.0000    16    14      [5s2p1d|3s2p1d]                                    
  ----------------------------------------------------------------------
  total:      5   10.0000   106    86
  ----------------------------------------------------------------------
  Spherical harmonic basis used.

  Threshold for neglecting AO integrals:  1.00D-12


  Cartesian Coordinates (bohr)
  ----------------------------

  Total number of coordinates:   15
  C       :     1  x   0.0000000000    2  y   0.0000000000    3  z   0.0000000000
  H2  / 1 :     4  x   1.6783151259    5  y  -0.9689756897    6  z  -0.6851692810
  H2  / 2 :     7  x  -1.6783151259    8  y  -0.9689756897    9  z  -0.6851692810
  H3      :    10  x   0.0000000000   11  y   1.9379513795   12  z  -0.6851692810
  H4      :    13  x   0.0000000000   14  y   0.0000000000   15  z   2.0555078430


  Cartesian Coordinates (xyz format; angstrom)
  --------------------------------------------

    5

  C        0.0000000000            0.0000000000            0.0000000000
  H        0.8881261172           -0.5127598528           -0.3625759691
  H       -0.8881261172           -0.5127598528           -0.3625759691
  H        0.0000000000            1.0255197056           -0.3625759691
  H        0.0000000000            0.0000000000            1.0877279072


  Symmetry Coordinates
  --------------------

  Number of coordinates in each symmetry:     9    6

  Symmetry  A'  ( 1)

    1   C     y    2
    2   C     z    3
    3   H2    x    [  4  -    7 ]/2
    4   H2    y    [  5  +    8 ]/2
    5   H2    z    [  6  +    9 ]/2
    6   H3    y   11
    7   H3    z   12
    8   H4    y   14
    9   H4    z   15

  Symmetry  A"  ( 2)

   10   C     x    1
   11   H2    x    [  4  +    7 ]/2
   12   H2    y    [  5  -    8 ]/2
   13   H2    z    [  6  -    9 ]/2
   14   H3    x   10
   15   H4    x   13


   Interatomic separations (in Angstrom):
   --------------------------------------

            C           H2  _1      H2  _2      H3          H4    
            ------      ------      ------      ------      ------
 C     :    0.000000
 H2  _1:    1.087728    0.000000
 H2  _2:    1.087728    1.776252    0.000000
 H3    :    1.087728    1.776252    1.776252    0.000000
 H4    :    1.087728    1.776252    1.776252    1.776252    0.000000


  Max    interatomic separation is    1.7763 Angstrom (    3.3566 Bohr)
  between atoms    4 and    2, "H3    " and "H2  _1".

  Min HX interatomic separation is    1.0877 Angstrom (    2.0555 Bohr)


  Bond distances (Angstrom):
  --------------------------

                  atom 1     atom 2       distance
                  ------     ------       --------
  bond distance:  H2  _1     C            1.087728
  bond distance:  H2  _2     C            1.087728
  bond distance:  H3         C            1.087728
  bond distance:  H4         C            1.087728


  Bond angles (degrees):
  ----------------------

                  atom 1     atom 2     atom 3         angle
                  ------     ------     ------         -----
  bond angle:     H2  _1     C          H2  _2       109.471
  bond angle:     H2  _1     C          H3           109.471
  bond angle:     H2  _1     C          H4           109.471
  bond angle:     H2  _2     C          H3           109.471
  bond angle:     H2  _2     C          H4           109.471
  bond angle:     H3         C          H4           109.471




 Principal moments of inertia (u*A**2) and principal axes
 --------------------------------------------------------

   IA       3.179760          0.000000    1.000000    0.000000
   IB       3.179760          0.000000    0.000000    1.000000
   IC       3.179760          1.000000    0.000000    0.000000


 Rotational constants
 --------------------

               A                   B                   C

         158936.1890         158936.1890         158936.1890 MHz
            5.301541            5.301541            5.301541 cm-1


@  Nuclear repulsion energy :   13.463453670579 Hartree


  Symmetry Orbitals
  -----------------

  Number of orbitals in each symmetry:          54   32


  Symmetry  A' ( 1)

    1     C        1s         1
    2     C        1s         2
    3     C        1s         3
    4     C        1s         4
    5     C        2py        6
    6     C        2pz        7
    7     C        2py        9
    8     C        2pz       10
    9     C        2py       12
   10     C        2pz       13
   11     C        3d1-      15
   12     C        3d0       16
   13     C        3d2+      18
   14     C        3d1-      20
   15     C        3d0       21
   16     C        3d2+      23
   17     C        4f3-      24
   18     C        4f1-      26
   19     C        4f0       27
   20     C        4f2+      29
   21     H2       1s        31 +   32
   22     H2       1s        33 +   34
   23     H2       1s        35 +   36
   24     H2       2px       37 -   38
   25     H2       2py       39 +   40
   26     H2       2pz       41 +   42
   27     H2       2px       43 -   44
   28     H2       2py       45 +   46
   29     H2       2pz       47 +   48
   30     H2       3d2-      49 -   50
   31     H2       3d1-      51 +   52
   32     H2       3d0       53 +   54
   33     H2       3d1+      55 -   56
   34     H2       3d2+      57 +   58
   35     H3       1s        59
   36     H3       1s        60
   37     H3       1s        61
   38     H3       2py       63
   39     H3       2pz       64
   40     H3       2py       66
   41     H3       2pz       67
   42     H3       3d1-      69
   43     H3       3d0       70
   44     H3       3d2+      72
   45     H4       1s        73
   46     H4       1s        74
   47     H4       1s        75
   48     H4       2py       77
   49     H4       2pz       78
   50     H4       2py       80
   51     H4       2pz       81
   52     H4       3d1-      83
   53     H4       3d0       84
   54     H4       3d2+      86


  Symmetry  A" ( 2)

   55     C        2px        5
   56     C        2px        8
   57     C        2px       11
   58     C        3d2-      14
   59     C        3d1+      17
   60     C        3d2-      19
   61     C        3d1+      22
   62     C        4f2-      25
   63     C        4f1+      28
   64     C        4f3+      30
   65     H2       1s        31 -   32
   66     H2       1s        33 -   34
   67     H2       1s        35 -   36
   68     H2       2px       37 +   38
   69     H2       2py       39 -   40
   70     H2       2pz       41 -   42
   71     H2       2px       43 +   44
   72     H2       2py       45 -   46
   73     H2       2pz       47 -   48
   74     H2       3d2-      49 +   50
   75     H2       3d1-      51 -   52
   76     H2       3d0       53 -   54
   77     H2       3d1+      55 +   56
   78     H2       3d2+      57 -   58
   79     H3       2px       62
   80     H3       2px       65
   81     H3       3d2-      68
   82     H3       3d1+      71
   83     H4       2px       76
   84     H4       2px       79
   85     H4       3d2-      82
   86     H4       3d1+      85

  Symmetries of electric field:  A" (2)  A' (1)  A' (1)

  Symmetries of magnetic field:  A' (1)  A" (2)  A" (2)


                     .---------------------------------------.
                     | Starting in Integral Section (HERMIT) |
                     `---------------------------------------'



 ***************************************************************************************
 ****************** Output from **INTEGRALS input processing (HERMIT) ******************
 ***************************************************************************************


 - Using defaults, no **INTEGRALS input found

 Default print level:        1

 Calculation of one- and two-electron Hamiltonian integrals.

 Center of mass  (bohr):      0.000000000000     -0.000000000000      0.000000000000
 Operator center (bohr):      0.000000000000      0.000000000000      0.000000000000
 Gauge origin    (bohr):      0.000000000000     -0.000000000000      0.000000000000
 Dipole origin   (bohr):      0.000000000000     -0.000000000000      0.000000000000

Calculation of 2-electron integrals are postponed until they are needed.


     ************************************************************************
     ************************** Output from HERINT **************************
     ************************************************************************



                      Nuclear contribution to dipole moments
                      --------------------------------------

                 au               Debye          C m (/(10**-30)

      y     -0.00000000        -0.00000000        -0.00000000
      z      0.00000000         0.00000000         0.00000000


  Total CPU  time used in HERMIT:   0.05 seconds
  Total wall time used in HERMIT:   0.05 seconds


                        .----------------------------------.
                        | End of Integral Section (HERMIT) |
                        `----------------------------------'



                   .--------------------------------------------.
                   | Starting in Wave Function Section (SIRIUS) |
                   `--------------------------------------------'


 *** Output from Huckel module :

     Using EWMO model:          F
     Using EHT  model:          T
     Number of Huckel orbitals each symmetry:    7    2

 Huckel EHT eigenvalues for symmetry :  1
          -11.381467      -1.226257      -0.609378      -0.609378      -0.224374
           -0.203656      -0.203656

 Huckel EHT eigenvalues for symmetry :  2
           -0.609378      -0.203656

 **********************************************************************
 *SIRIUS* a direct, restricted step, second order MCSCF program       *
 **********************************************************************

 
     Date and time (Linux)  : Thu May  7 16:34:27 2026
     Host name              : debian                                  

 Title lines from ".mol" input file:
     Methane CH4 using the cc-pVTZ basis
     Using automatic symmetry detection

 Print level on unit LUPRI =   2 is   0
 Print level on unit LUW4  =   2 is   5

@    Restricted, closed shell Kohn-Sham DFT calculation.

 Initial molecular orbitals are obtained according to
 ".MOSTART EHT   " input option

     Wave function specification
     ============================
@    Wave function type        --- KS-DFT ---
@    Number of closed shell electrons          10
@    Number of electrons in active shells       0
@    Total charge of the molecule               0

@    Spin multiplicity and 2 M_S                1         0
@    Total number of symmetries                 2 (point group: Cs )
@    Reference state symmetry                   1 (irrep name : A' )
 
     This is a DFT calculation of type: B3LYP
 Weighted mixed functional:
               HF exchange:    0.20000
                       VWN:    0.19000
                       LYP:    0.81000
                     Becke:    0.72000
                    Slater:    0.80000

     Orbital specifications
     ======================
@    Abelian symmetry species          All |    1    2
@                                          |  A'   A" 
                                       --- |  ---  ---
@    Total number of orbitals           86 |   54   32
@    Number of basis functions          86 |   54   32

      ** Automatic occupation of RKS orbitals **

      -- Initial occupation of symmetries is determined from extended Huckel guess.           
      -- Initial occupation of symmetries is :
@    Occupied SCF orbitals               5 |    4    1

     Maximum number of Fock   iterations      0
     Maximum number of DIIS   iterations     60
     Maximum number of QC-SCF iterations     60
     Threshold for SCF convergence     1.00D-05
 
     This is a DFT calculation of type: B3LYP
 Weighted mixed functional:
               HF exchange:    0.20000
                       VWN:    0.19000
                       LYP:    0.81000
                     Becke:    0.72000
                    Slater:    0.80000


 ***********************************************
 ***** DIIS acceleration of SCF iterations *****
 ***********************************************

 C1-DIIS algorithm; max error vectors =    8

 Automatic occupation of symmetries with  10 electrons.

 Iter     Total energy    Error norm  Delta(E)    SCF occupation
 -----------------------------------------------------------------------------

---> (Re)generating AOTWOINT


     ************************************************************************
     ************************** Output from HERINT **************************
     ************************************************************************


***  INFO  GETGAB: GABSO--- not found on AOGABINT. Regenerating.

 Threshold for neglecting two-electron integrals:  1.00D-12
 HERMIT - Number of two-electron integrals written:     3254199 ( 46.5% )
 HERMIT - Megabytes written:                             37.355

  Total CPU  time used in TWOINT:   0.49 seconds
  Total wall time used in TWOINT:   0.49 seconds
  Time used in TWOINT     is       0.51 seconds
      K-S energy, electrons, error :     -5.286543874485  10.0000001168    1.17D-07
@  1  -40.2745614956       2.07D+00  -4.03D+01     4   1
      Virial theorem: -V/T =      2.033878
@    MULPOP   C      -0.39; H2  _1  0.10; H2  _2  0.10; H3      0.10; H4      0.10; 
   1  Level shift: doubly occupied orbital energies shifted by -2.00D-01
 -----------------------------------------------------------------------------
      K-S energy, electrons, error :     -5.718359992631  10.0000000616    6.16D-08
@  2  -40.4133822136       1.29D+00  -1.39D-01     4   1
      Virial theorem: -V/T =      1.975109
@    MULPOP   C      -0.98; H2  _1  0.24; H2  _2  0.24; H3      0.25; H4      0.25; 
   2  Level shift: doubly occupied orbital energies shifted by -2.00D-01
 -----------------------------------------------------------------------------
      K-S energy, electrons, error :     -5.561561752749  10.0000000674    6.74D-08
@  3  -40.5017352356       1.00D-01  -8.84D-02     4   1
      Virial theorem: -V/T =      2.008920
@    MULPOP   C      -0.39; H2  _1  0.10; H2  _2  0.10; H3      0.10; H4      0.10; 
   3  Level shift: doubly occupied orbital energies shifted by -5.00D-02
 -----------------------------------------------------------------------------
      K-S energy, electrons, error :     -5.555804415121  10.0000000609    6.09D-08
@  4  -40.5021983946       3.44D-02  -4.63D-04     4   1
      Virial theorem: -V/T =      2.007934
@    MULPOP   C      -0.39; H2  _1  0.10; H2  _2  0.10; H3      0.10; H4      0.10; 
   4  Level shift: doubly occupied orbital energies shifted by -2.50D-02
 -----------------------------------------------------------------------------
      K-S energy, electrons, error :     -5.560105697509  10.0000000601    6.01D-08
@  5  -40.5022697520       1.21D-03  -7.14D-05     4   1
      Virial theorem: -V/T =      2.007178
@    MULPOP   C      -0.41; H2  _1  0.10; H2  _2  0.10; H3      0.10; H4      0.10; 
 -----------------------------------------------------------------------------
      K-S energy, electrons, error :     -5.560274670850  10.0000000600    6.00D-08
@  6  -40.5022698956       7.97D-05  -1.44D-07     4   1
      Virial theorem: -V/T =      2.007144
@    MULPOP   C      -0.41; H2  _1  0.10; H2  _2  0.10; H3      0.10; H4      0.10; 
 -----------------------------------------------------------------------------
      K-S energy, electrons, error :     -5.560261232512  10.0000000600    6.00D-08
@  7  -40.5022698961       4.42D-06  -4.51D-10     4   1

@ *** DIIS converged in   7 iterations !
@     Converged SCF energy, gradient:    -40.502269896069    4.42D-06
    - total time used in SIRFCK :              0.92 seconds


 *** SCF orbital energy analysis ***

 Only the 20 lowest virtual orbital energies printed in each symmetry.

 Number of electrons        :   10
 Closed shell orbitals      :    4    1

 Sym       Kohn-Sham orbital energies

1 A'    -10.15127987    -0.69362113    -0.39204912    -0.39204911     0.04726297
          0.12320258     0.12320250     0.24005514     0.24005512     0.46937426
          0.46937419     0.47422082     0.50907092     0.58866579     0.88189237
          0.96159613     0.96159614     1.12483302     1.12483346     1.31700988
          1.31701011     1.39272693     1.54045474     2.11387426

2 A"     -0.39204900     0.12320263     0.24005525     0.46937425     0.50907098
          0.88189235     0.88189234     0.96159621     1.12483367     1.31701014
          1.39272719     2.11387433     2.65142923     2.81210239     2.82310312
          2.82310325     2.97130223     3.31141325     3.31141320     3.40816547
          3.49941644

    E(LUMO) :     0.04726297 au (symmetry 1)
  - E(HOMO) :    -0.39204900 au (symmetry 2)
  ------------------------------------------
    gap     :     0.43931197 au

 --- Writing SIRIFC interface file

--------------------------------------------------------------------------------


     .-----------------------------------------------.
     | DFT KT IPs [a.u. & eV] from Koopmans' theorem |
     `-----------------------------------------------'


     DFT KT symmetry 1 ( A' ) in point group Cs  -- 4 principal poles with pole strength 1

   ============  ============  ============  ============
      10.151280      0.693621      0.392049      0.392049
     276.230377     18.874391     10.668199     10.668199
   ============  ============  ============  ============

     DFT KT symmetry 2 ( A" ) in point group Cs  -- 1 principal poles with pole strength 1

   ============
       0.392049
      10.668196
   ============

@ Summary of DFT KT ionization potentials [eV]:

@ Symmetry 1 (A' ) :   276.230      18.874      10.668      10.668

@ Symmetry 2 (A" ) :    10.668

  === End of DFT KT output ===
--------------------------------------------------------------------------------


 CPU and wall time for SCF :       5.790       5.795


                       .-----------------------------------.
                       | --- Final results from SIRIUS --- |
                       `-----------------------------------'


@    Spin multiplicity:           1
@    Spatial symmetry:            1 ( irrep  A'  in Cs  )
@    Total charge of molecule:    0

@    Final DFT energy:            -40.502269896069                 
@    Nuclear repulsion:            13.463453670579
@    Electronic energy:           -53.965723566648

@    Final gradient norm:           0.000004416951

 
     Date and time (Linux)  : Thu May  7 16:34:33 2026
     Host name              : debian                                  

File label for MO orbitals:   7May26   FOCKDIIS

 (Only coefficients > 0.0100 are printed.)

 Molecular orbitals for symmetry species 1  (A' )
 ------------------------------------------------

    Orbital         1        2        3        4        5        6        7
   1 C   :1s     1.0028  -0.0327  -0.0000  -0.0000  -0.0186   0.0000  -0.0000
   2 C   :1s     0.0297   0.7474   0.0000   0.0000  -0.5358  -0.0000  -0.0000
   4 C   :1s     0.0089  -0.0948  -0.0000  -0.0000  -2.9576   0.0000  -0.0000
   5 C   :2py    0.0000  -0.0000   0.7124  -0.0039  -0.0000  -0.5071   0.0867
   6 C   :2pz    0.0000  -0.0000   0.0039   0.7124   0.0000  -0.0867  -0.5071
   7 C   :2py   -0.0000   0.0000  -0.0821   0.0004  -0.0000  -0.1264   0.0216
   8 C   :2pz   -0.0000   0.0000  -0.0004  -0.0821   0.0000  -0.0216  -0.1264
   9 C   :2py    0.0000   0.0000  -0.1016   0.0006  -0.0000  -1.3744   0.2349
  10 C   :2pz    0.0000   0.0000  -0.0006  -0.1016   0.0000  -0.2349  -1.3744
  12 C   :3d0   -0.0000  -0.0000   0.0001   0.0142  -0.0000   0.0015   0.0089
  13 C   :3d2+  -0.0000   0.0000  -0.0116   0.0001  -0.0000  -0.0073   0.0012
  14 C   :3d1-   0.0000   0.0000  -0.0067   0.0000   0.0000   0.0509  -0.0087
  15 C   :3d0   -0.0000  -0.0000   0.0001   0.0117   0.0000  -0.0151  -0.0881
  16 C   :3d2+   0.0000   0.0000  -0.0095   0.0001   0.0000   0.0719  -0.0123
  17 C   :4f3-  -0.0019  -0.0041  -0.0000  -0.0001   0.0135  -0.0003  -0.0016
  19 C   :4f0    0.0022   0.0046  -0.0000  -0.0000  -0.0151  -0.0002  -0.0014
  21 H2  :1s     0.0001   0.3603  -0.3668  -0.2563   0.0029  -0.0752  -0.0360
  22 H2  :1s    -0.0092  -0.0969   0.0619   0.0433   0.1930  -0.0993  -0.0475
  23 H2  :1s    -0.0028  -0.1233   0.0765   0.0535   0.9961  -1.3537  -0.6476
  24 H2  :2px    0.0011  -0.0068   0.0075   0.0053   0.0101  -0.0145  -0.0069
  27 H2  :2px    0.0038  -0.0021   0.0090   0.0063  -0.0820   0.0674   0.0323
  28 H2  :2py   -0.0022   0.0012   0.0079  -0.0037   0.0474  -0.0231  -0.0213
  29 H2  :2pz   -0.0015   0.0009  -0.0036   0.0105   0.0335  -0.0248   0.0027
  35 H3  :1s     0.0001   0.3603   0.7293  -0.2623   0.0029   0.1262  -0.0704
  36 H3  :1s    -0.0092  -0.0969  -0.1232   0.0443   0.1930   0.1665  -0.0929
  37 H3  :1s    -0.0028  -0.1233  -0.1521   0.0547   0.9961   2.2696  -1.2668
  38 H3  :2py    0.0012  -0.0079  -0.0119   0.0062   0.0117   0.0169  -0.0137
  39 H3  :2pz   -0.0004   0.0028   0.0062   0.0033  -0.0041  -0.0118  -0.0056
  40 H3  :2py    0.0044  -0.0025  -0.0077   0.0074  -0.0947  -0.1147   0.0702
  41 H3  :2pz   -0.0015   0.0009   0.0074   0.0104   0.0335   0.0489  -0.0099
  45 H4  :1s     0.0001   0.3603   0.0042   0.7750   0.0029   0.0243   0.1424
  46 H4  :1s    -0.0092  -0.0969  -0.0007  -0.1309   0.1930   0.0321   0.1880
  47 H4  :1s    -0.0028  -0.1233  -0.0009  -0.1617   0.9961   0.4378   2.5621
  48 H4  :2py   -0.0000  -0.0000   0.0055  -0.0000  -0.0000  -0.0111   0.0019
  49 H4  :2pz    0.0013  -0.0084  -0.0001  -0.0141   0.0124   0.0038   0.0224
  50 H4  :2py   -0.0000  -0.0000   0.0131  -0.0001   0.0000   0.0158  -0.0027
  51 H4  :2pz    0.0046  -0.0026  -0.0001  -0.0103  -0.1005  -0.0240  -0.1405

    Orbital         8        9       10       11       12       13       14
   1 C   :1s    -0.0000   0.0000  -0.0000  -0.0000   0.0590   0.0000  -0.0073
   2 C   :1s     0.0000   0.0000  -0.0000   0.0000  -0.5672   0.0000   0.0778
   3 C   :1s     0.0000  -0.0000   0.0000   0.0000  -0.0899   0.0000   0.1642
   4 C   :1s    -0.0000   0.0000  -0.0000  -0.0002   5.9064   0.0000  -7.7021
   5 C   :2py    0.0921   0.2499   0.8694   0.2731   0.0000   0.0000   0.0000
   6 C   :2pz   -0.2499   0.0921   0.2731  -0.8694  -0.0000   0.0000   0.0000
   7 C   :2py   -0.1956  -0.5307  -0.7888  -0.2478  -0.0000  -0.0000  -0.0000
   8 C   :2pz    0.5307  -0.1956  -0.2478   0.7888   0.0000  -0.0000  -0.0000
   9 C   :2py   -0.7309  -1.9836  -2.9399  -0.9234  -0.0000  -0.0000  -0.0000
  10 C   :2pz    1.9836  -0.7309  -0.9234   2.9399   0.0001  -0.0000  -0.0000
  11 C   :3d1-  -0.0016  -0.0044   0.0274   0.0086   0.0000  -0.0173  -0.0000
  12 C   :3d0   -0.0077   0.0028  -0.0149   0.0474   0.0000  -0.0000  -0.0000
  13 C   :3d2+  -0.0023  -0.0063   0.0387   0.0122   0.0000   0.0122  -0.0000
  14 C   :3d1-   0.0858   0.2327   0.4402   0.1383   0.0000  -0.0830   0.0000
  15 C   :3d0    0.4031  -0.1485  -0.2395   0.7624   0.0000   0.0000  -0.0000
  16 C   :3d2+   0.1213   0.3291   0.6225   0.1955   0.0000   0.0587   0.0000
  17 C   :4f3-   0.0326  -0.0120  -0.0085   0.0271  -0.0566  -0.0000   0.0927
  18 C   :4f1-   0.0066   0.0178   0.0148   0.0047   0.0000  -0.0000   0.0000
  19 C   :4f0    0.0291  -0.0107  -0.0076   0.0242   0.0633  -0.0000  -0.1036
  20 C   :4f2+  -0.0147  -0.0399  -0.0331  -0.0104  -0.0000  -0.0000  -0.0000
  21 H2  :1s     0.0460  -0.1713   0.3351  -0.1078   0.3973   0.0000   0.1876
  22 H2  :1s     0.2497  -0.9296  -0.6297   0.2025  -0.5662  -0.0000   1.6162
  23 H2  :1s     0.0465  -0.1732  -1.8177   0.5846  -1.3561  -0.0000   0.8423
  24 H2  :2px   -0.0022   0.0081  -0.0051   0.0016   0.0012  -0.0158  -0.0262
  25 H2  :2py   -0.0045  -0.0204  -0.0078  -0.0043  -0.0007  -0.0182   0.0151
  26 H2  :2pz    0.0166  -0.0091  -0.0013   0.0101  -0.0005  -0.0129   0.0107
  27 H2  :2px   -0.0472   0.1757   0.4907  -0.1578   0.4549   0.2508  -0.2639
  28 H2  :2py    0.0302  -0.0935  -0.1202   0.1423  -0.2626   0.2896   0.1524
  29 H2  :2pz    0.0113  -0.0688  -0.1491  -0.0986  -0.1857   0.2048   0.1077
  30 H2  :3d2-   0.0006   0.0113   0.0152  -0.0062   0.0219  -0.0070  -0.0274
  31 H2  :3d1-   0.0005  -0.0128  -0.0118  -0.0006  -0.0089  -0.0044   0.0112
  32 H2  :3d0   -0.0095   0.0082   0.0115  -0.0145   0.0109   0.0070  -0.0137
  33 H2  :3d1+  -0.0068   0.0061   0.0116  -0.0018   0.0155  -0.0049  -0.0194
  34 H2  :3d2+  -0.0016  -0.0098  -0.0198   0.0001  -0.0126  -0.0089   0.0158
  35 H3  :1s     0.1963   0.2364  -0.4875  -0.3662   0.3972  -0.0000   0.1876
  36 H3  :1s     1.0649   1.2827   0.9161   0.6880  -0.5662   0.0000   1.6162
  37 H3  :1s     0.1985   0.2391   2.6443   1.9861  -1.3561   0.0000   0.8423
  38 H3  :2py   -0.0165  -0.0286  -0.0021   0.0031   0.0014   0.0091  -0.0302
  39 H3  :2pz    0.0195  -0.0012  -0.0064   0.0085  -0.0005   0.0257   0.0107
  40 H3  :2py   -0.2295  -0.2721  -0.6612  -0.5679   0.5253  -0.1448  -0.3048
  41 H3  :2pz    0.0742   0.1019   0.3426   0.0558  -0.1857  -0.4096   0.1077
  42 H3  :3d1-  -0.0152  -0.0132  -0.0265  -0.0146   0.0179   0.0041  -0.0224
  43 H3  :3d0   -0.0140  -0.0042  -0.0076  -0.0205   0.0109  -0.0139  -0.0137
  44 H3  :3d2+  -0.0135  -0.0254  -0.0352  -0.0238   0.0252   0.0031  -0.0316
  45 H4  :1s    -0.2883   0.1062  -0.1827   0.5817   0.3973  -0.0000   0.1876
  46 H4  :1s    -1.5643   0.5764   0.3433  -1.0930  -0.5663   0.0000   1.6162
  47 H4  :1s    -0.2915   0.1074   0.9910  -3.1550  -1.3562   0.0000   0.8423
  48 H4  :2py   -0.0058  -0.0157  -0.0107  -0.0034  -0.0000   0.0273  -0.0000
  49 H4  :2pz    0.0324  -0.0119   0.0000  -0.0002   0.0015  -0.0000  -0.0320
  50 H4  :2py    0.0029   0.0080   0.1631   0.0512   0.0000  -0.4344  -0.0000
  51 H4  :2pz    0.3542  -0.1305  -0.2764   0.8800   0.5572  -0.0000  -0.3233
  53 H4  :3d0   -0.0343   0.0126   0.0165  -0.0525  -0.0328   0.0000   0.0411
  54 H4  :3d2+  -0.0036  -0.0099  -0.0086  -0.0027  -0.0000   0.0112  -0.0000

 Molecular orbitals for symmetry species 2  (A" )
 ------------------------------------------------

    Orbital         1        2        3        4        5        6        7
   1 C   :2px    0.7124  -0.5145  -0.2664   0.9113   0.0000  -0.0000   0.0000
   2 C   :2px   -0.0821  -0.1283   0.5656  -0.8268   0.0000  -0.0000   0.0000
   3 C   :2px   -0.1016  -1.3944   2.1140  -3.0815   0.0000  -0.0000   0.0000
   4 C   :3d2-  -0.0116  -0.0074   0.0067   0.0406  -0.0122   0.0000  -0.0000
   5 C   :3d1+  -0.0082  -0.0052   0.0047   0.0287   0.0173   0.0000   0.0000
   6 C   :3d2-  -0.0095   0.0730  -0.3508   0.6525  -0.0587   0.0000  -0.0000
   7 C   :3d1+  -0.0067   0.0516  -0.2480   0.4614   0.0830   0.0000  -0.0000
   8 C   :4f2-  -0.0001  -0.0019   0.0425  -0.0347   0.0000   0.0178  -0.0252
   9 C   :4f1+   0.0000   0.0009  -0.0190   0.0155  -0.0000   0.0398  -0.0563
  10 C   :4f3+  -0.0000  -0.0000   0.0000   0.0000   0.0000  -0.0617  -0.0436
  11 H2  :1s     0.6328   0.1180  -0.2509  -0.4978  -0.0000  -0.0000   0.0000
  12 H2  :1s    -0.1069   0.1557  -1.3612   0.9354  -0.0000   0.0000  -0.0000
  13 H2  :1s    -0.1320   2.1223  -0.2537   2.7002  -0.0000   0.0000  -0.0000
  14 H2  :2px   -0.0076   0.0114   0.0286  -0.0036   0.0000  -0.0251   0.0000
  15 H2  :2py    0.0075  -0.0131  -0.0069  -0.0044   0.0158  -0.0290  -0.0205
  16 H2  :2pz    0.0053  -0.0093  -0.0049  -0.0031  -0.0223  -0.0205   0.0290
  17 H2  :2px   -0.0025  -0.0897   0.2489  -0.5580   0.0000   0.4789   0.0000
  18 H2  :2py    0.0090   0.0610  -0.1486   0.4208  -0.2508   0.5530   0.3911
  19 H2  :2pz    0.0064   0.0432  -0.1051   0.2976   0.3547   0.3911  -0.5530
  20 H2  :3d2-  -0.0024  -0.0056   0.0222  -0.0334   0.0009   0.0004  -0.0112
  21 H2  :3d1-   0.0015   0.0005  -0.0033   0.0105   0.0049   0.0197   0.0002
  22 H2  :3d0   -0.0006  -0.0022   0.0076  -0.0116   0.0121  -0.0004   0.0006
  23 H2  :3d1+  -0.0017  -0.0040   0.0157  -0.0236  -0.0012   0.0003   0.0158
  24 H2  :3d2+  -0.0000   0.0034  -0.0108   0.0126   0.0070  -0.0132   0.0004
  25 H3  :2px    0.0055  -0.0113   0.0167  -0.0113   0.0273   0.0251   0.0355
  26 H3  :2px    0.0131   0.0161  -0.0085   0.1709  -0.4344  -0.4789  -0.6773
  27 H3  :3d2-  -0.0025   0.0003   0.0035  -0.0116   0.0129   0.0075   0.0106
  28 H3  :3d1+   0.0008  -0.0031   0.0099  -0.0054   0.0073  -0.0115  -0.0162
  29 H4  :2px    0.0055  -0.0113   0.0167  -0.0113  -0.0273   0.0251  -0.0355
  30 H4  :2px    0.0131   0.0161  -0.0085   0.1709   0.4344  -0.4789   0.6773
  31 H4  :3d2-  -0.0001  -0.0028   0.0105  -0.0090  -0.0112  -0.0083   0.0118
  32 H4  :3d1+  -0.0026   0.0013  -0.0000  -0.0091  -0.0098   0.0109  -0.0154

    Orbital         8        9       10       11
   1 C   :2px    0.3957   0.4769  -0.7872  -0.0000
   2 C   :2px    1.4077   0.1791  -4.1164  -0.0000
   3 C   :2px    1.8030   1.4969  -1.7776  -0.0000
   4 C   :3d2-  -0.0291  -0.0299   0.0707   0.0112
   5 C   :3d1+  -0.0206  -0.0212   0.0500  -0.0159
   6 C   :3d2-  -1.7562   1.0102   1.9858   1.6147
   7 C   :3d1+  -1.2418   0.7143   1.4042  -2.2836
   8 C   :4f2-   0.1094  -0.0694  -0.1280  -0.0000
   9 C   :4f1+  -0.0489   0.0311   0.0572   0.0000
  11 H2  :1s     0.2530   0.0877   0.1827  -0.0000
  12 H2  :1s    -3.0416   0.1416   4.5162   0.0000
  13 H2  :1s    -0.4133  -0.8710   1.4497   0.0000
  14 H2  :2px    0.0569  -0.0157   0.0293  -0.0000
  15 H2  :2py   -0.0235   0.0455  -0.0208   0.0476
  16 H2  :2pz   -0.0166   0.0322  -0.0147  -0.0673
  17 H2  :2px    0.3105  -0.3851  -2.5075  -0.0000
  18 H2  :2py   -0.2507  -0.4894   1.3935  -0.7465
  19 H2  :2pz   -0.1773  -0.3461   0.9854   1.0557
  20 H2  :3d2-   0.0276   0.0137  -0.1034   0.0272
  21 H2  :3d1-  -0.0062  -0.0044   0.0310   0.0117
  22 H2  :3d0    0.0206  -0.0103  -0.0427   0.0286
  23 H2  :3d1+   0.0195   0.0097  -0.0731  -0.0385
  24 H2  :3d2+  -0.0312   0.0210   0.0521   0.0165
  25 H3  :2px    0.0163   0.0631  -0.0067   0.0824
  26 H3  :2px   -0.1238  -1.2328  -0.0938  -1.2929
  27 H3  :3d2-  -0.0266   0.0500  -0.0132   0.0558
  28 H3  :3d1+   0.0087   0.0020  -0.0195  -0.0183
  29 H4  :2px    0.0163   0.0631  -0.0067  -0.0824
  30 H4  :2px   -0.1238  -1.2328  -0.0938   1.2929
  31 H4  :3d2-  -0.0006   0.0185  -0.0227  -0.0014
  32 H4  :3d1+  -0.0280   0.0465  -0.0059  -0.0587

  Total CPU  time used in SIRIUS :   5.81 seconds
  Total wall time used in SIRIUS :   5.82 seconds

 
     Date and time (Linux)  : Thu May  7 16:34:33 2026
     Host name              : debian                                  


                     .---------------------------------------.
                     | End of Wave Function Section (SIRIUS) |
                     `---------------------------------------'

  Total CPU  time used in DALTON:   5.88 seconds
  Total wall time used in DALTON:   5.88 seconds

 
     Date and time (Linux)  : Thu May  7 16:34:33 2026
     Host name              : debian                                  
