

     ************************************************************************
     *************** Dalton - An Electronic Structure Program ***************
     ************************************************************************

    This is output from DALTON release Dalton2025.0-dev (2025)
         ( Web site: http://daltonprogram.org )

   ----------------------------------------------------------------------------

    NOTE:
     
    Dalton is an experimental code for the evaluation of molecular
    properties using (MC)SCF, DFT, CI, and CC wave functions.
    The authors accept no responsibility for the performance of
    the code or for the correctness of the results.
     
    The code (in whole or part) is provided under a licence and
    is not to be reproduced for further distribution without
    the written permission of the authors or their representatives.
     
    See the home page "http://daltonprogram.org" for further information.
     
    If results obtained with this code are published,
    the appropriate citations would be both of:
     
       K. Aidas, C. Angeli, K. L. Bak, V. Bakken,
       R. Bast, L. Boman, O. Christiansen, R. Cimiraglia,
       S. Coriani, P. Dahle, E. K. Dalskov, U. Ekstroem,
       T. Enevoldsen, J. J. Eriksen, P. Ettenhuber, B. Fernandez,
       L. Ferrighi, H. Fliegl, L. Frediani, K. Hald, A. Halkier,
       C. Haettig, H. Heiberg, T. Helgaker, A. C. Hennum,
       H. Hettema, E. Hjertenaes, S. Hoest, I.-M. Hoeyvik,
       M. F. Iozzi, B. Jansik, H. J. Aa. Jensen, D. Jonsson,
       P. Joergensen, J. Kauczor, S. Kirpekar,
       T. Kjaergaard, W. Klopper, S. Knecht, R. Kobayashi, H. Koch,
       J. Kongsted, A. Krapp, K. Kristensen, A. Ligabue,
       O. B. Lutnaes, J. I. Melo, K. V. Mikkelsen, R. H. Myhre,
       C. Neiss, C. B. Nielsen, P. Norman, J. Olsen,
       J. M. H. Olsen, A. Osted, M. J. Packer, F. Pawlowski,
       T. B. Pedersen, P. F. Provasi, S. Reine, Z. Rinkevicius,
       T. A. Ruden, K. Ruud, V. Rybkin, P. Salek, C. C. M. Samson,
       A. Sanchez de Meras, T. Saue, S. P. A. Sauer,
       B. Schimmelpfennig, K. Sneskov, A. H. Steindal,
       K. O. Sylvester-Hvid, P. R. Taylor, A. M. Teale,
       E. I. Tellgren, D. P. Tew, A. J. Thorvaldsen, L. Thoegersen,
       O. Vahtras, M. A. Watson, D. J. D. Wilson, M. Ziolkowski
       and H. Agren,
       "The Dalton quantum chemistry program system",
       WIREs Comput. Mol. Sci. 2014, 4:269-284 (doi: 10.1002/wcms.1172)
     
    and
     
       Dalton, a molecular electronic structure program,
       Release Dalton2025.0-dev (2025), see http://daltonprogram.org
   ----------------------------------------------------------------------------

    Authors in alphabetical order (Major contribution(s) in parenthesis):

  Kestutis Aidas,              Vilnius University,        Lithuania   (QM/MM)
  Celestino Angeli,            University of Ferrara,     Italy       (NEVPT2)
  Juan J. Aucar,               Northeast National UniversiArgentina   (LRESC, Relativistic Effects on NMR Shieldings and EFG)
  Keld L. Bak,                 UNI-C,                     Denmark     (AOSOPPA, non-adiabatic coupling, magnetic properties)
  Vebjoern Bakken,             University of Oslo,        Norway      (DALTON; geometry optimizer, symmetry detection)
  Radovan Bast,                UiT The Arctic U. of NorwayNorway      (DALTON installation and execution frameworks)
  Pablo Baudin,                University of Valencia,    Spain       (Cholesky excitation energies)
  Linus Boman,                 NTNU,                      Norway      (Cholesky decomposition and subsystems)
  Bruno N. Cabral Tenorio,     Technical Univ. of Denmark,Denmark     (Lanczos-based CC methods)
  Ove Christiansen,            Aarhus University,         Denmark     (CC module)
  Renzo Cimiraglia,            University of Ferrara,     Italy       (NEVPT2)
  Sonia Coriani,               Technical Univ. of Denmark,Denmark     (CC and RESPONS modules)
  Janusz Cukras,               University of Warsaw,      Poland      (MChD in RESPONS)
  Paal Dahle,                  University of Oslo,        Norway      (Parallelization)
  Erik K. Dalskov,             UNI-C,                     Denmark     (SOPPA)
  Thomas Enevoldsen,           Univ. of Southern Denmark, Denmark     (SOPPA)
  Janus J. Eriksen,            Aarhus University,         Denmark     (Polarizable embedding, TDA)
  Rasmus Faber,                Technical Univ. of Denmark,Denmark     (Vib.avg. NMR w. SOPPA, parallel AO-SOPPA, CVS-CC and EOMCC)
  Tobias Fahleson,             KTH Stockholm,             Sweden      (Damped cubic response)
  Berta Fernandez,             U. of Santiago de CompostelSpain       (Doublet spin, ESR in RESPONS)
  Lara Ferrighi,               Aarhus University,         Denmark     (PCM Cubic response)
  Heike Fliegl,                University of Oslo,        Norway      (CCSD(R12))
  Luca Frediani,               UiT The Arctic U. of NorwayNorway      (PCM)
  Emmanuel Fromager,           Univ. Strasbourg,          France      (MC-srDFT)
  Bin Gao,                     UiT The Arctic U. of NorwayNorway      (Gen1Int library)
  Andre S. P. Gomes,           CNRS/Universite de Lille,  France      (Frozen density embedding)
  Christof Haettig,            Ruhr-University Bochum,    Germany     (CC module)
  Kasper Hald,                 Aarhus University,         Denmark     (CC module)
  Asger Halkier,               Aarhus University,         Denmark     (CC module)
  Frederik Beyer Hansen,       University of Copenhagen,  Denmark     (Parallel AO-SOPPA)
  Erik D. Hedegaard,           Univ. of Southern Denmark, Denmark     (Polarizable embedding, QM/MM, and MC-srDFT)
  Hanne Heiberg,               University of Oslo,        Norway      (Geometry analysis, selected one-electron integrals)
  Trygve Helgaker,             University of Oslo,        Norway      (DALTON; ABACUS, ERI, DFT modules, London, and much more)
  Alf Christian Hennum,        University of Oslo,        Norway      (Parity violation)
  Hinne Hettema,               University of Auckland,    New Zealand (Quadratic response in RESPONS; SIRIUS supersymmetry)
  Andreas E. Hillers-Bendtsen, University of Copenhagen,  Denmark     (MP3)
  Eirik Hjertenaes,            NTNU,                      Norway      (Cholesky decomposition)
  Nicolai Machholdt Hoeyer,    Aarhus University,         Denmark     (MP3)
  Pi A. B. Haase,              University of Copenhagen,  Denmark     (Triplet AO-SOPPA)
  Maria Francesca Iozzi,       University of Oslo,        Norway      (RPA)
  Christoph Jacob,             TU Braunschweig            Germany     (Frozen density embedding)
  Brano Jansik,                Technical Univ. of Ostrava Czech Rep.  (DFT cubic response)
  Hans Joergen Aa. Jensen,     Univ. of Southern Denmark, Denmark     (DALTON; SIRIUS, RESPONS, ABACUS, MC-srDFT, and much more)
  Dan Jonsson,                 UiT The Arctic U. of NorwayNorway      (Cubic response in RESPONS module)
  Poul Joergensen,             Aarhus University,         Denmark     (RESPONS, ABACUS, and CC modules)
  Maciej Kaminski,             University of Warsaw,      Poland      (CPPh in RESPONS)
  Joanna Kauczor,              Linkoeping University,     Sweden      (Complex polarization propagator (CPP) module)
  Sheela Kirpekar,             Univ. of Southern Denmark, Denmark     (Mass-velocity & Darwin integrals)
  Frederik Oersted Kjeldal,    Technical Univ. of Denmark,Denmark     (MP3)
  Erik Kjellgren,              Univ. of Southern Denmark, Denmark     (MC-srDFT)
  Wim Klopper,                 KIT Karlsruhe,             Germany     (R12 code in CC, SIRIUS, and ABACUS modules)
  Stefan Knecht,               ETH Zurich,                Switzerland (Parallel CI and MCSCF, MC-srDFT)
  Rika Kobayashi,              Australian National Univ., Australia   (DIIS in CC, London in MCSCF)
  Henrik Koch,                 NTNU,                      Norway      (CC module, Cholesky decomposition)
  Jacob Kongsted,              Univ. of Southern Denmark, Denmark     (Polarizable embedding, polarizable density embedding, QM/MM)
  Andrea Ligabue,              University of Modena,      Italy       (CTOCD, AOSOPPA)
  Nanna H. List,               Univ. of Southern Denmark, Denmark     (Polarizable embedding)
  Ola B. Lutnaes,              University of Oslo,        Norway      (DFT Hessian)
  Juan I. Melo,                University of Buenos Aires,Argentina   (LRESC, Relativistic Effects on NMR Shieldings)
  Kurt V. Mikkelsen,           University of Copenhagen,  Denmark     (MC-SCRF, QM/MM, and MP3)
  Rolf H. Myhre,               NTNU,                      Norway      (Subsystems and CC3)
  Christian Neiss,             Univ. Erlangen-Nuernberg,  Germany     (CCSD(R12))
  Christian B. Nielsen,        University of Copenhagen,  Denmark     (QM/MM)
  Patrick Norman,              KTH Stockholm,             Sweden      (Cubic response and complex frequency response in RESPONS)
  Jeppe Olsen,                 Aarhus University,         Denmark     (SIRIUS CI/density modules)
  Jogvan Magnus H. Olsen,      Aarhus University,         Denmark     (Polarizable embedding and polarizable density embedding)
  Anders Osted,                Copenhagen University,     Denmark     (QM/MM)
  Martin J. Packer,            University of Sheffield,   UK          (SOPPA)
  Filip Pawlowski,             Kazimierz Wielki UniversityPoland      (CC3)
  Morten N. Pedersen,          Univ. of Southern Denmark, Denmark     (Polarizable embedding)
  Thomas B. Pedersen,          University of Oslo,        Norway      (Cholesky decomposition)
  Patricio F. Provasi,         University of Northeastern,Argentina   (Analysis of coupling constants in localized orbitals)
  Peter Reinholdt,             Univ. of Southern Denmark, Denmark     (Polarizable embedding and polarizable density embedding)
  Zilvinas Rinkevicius,        KTH Stockholm,             Sweden      (open-shell DFT, ESR)
  Elias Rudberg,               KTH Stockholm,             Sweden      (DFT grid and basis info)
  Torgeir A. Ruden,            University of Oslo,        Norway      (Numerical derivatives in ABACUS)
  Kenneth Ruud,                UiT The Arctic U. of NorwayNorway      (DALTON; ABACUS magnetic properties and much more)
  Pawel Salek,                 KTH Stockholm,             Sweden      (DALTON; DFT code)
  Claire C. M. Samson,         University of Karlsruhe    Germany     (Boys localization, r12 integrals in ERI)
  Alfredo Sanchez de Meras,    University of Valencia,    Spain       (CC module, Cholesky decomposition)
  Trond Saue,                  Paul Sabatier University,  France      (direct Fock matrix construction)
  Stephan P. A. Sauer,         University of Copenhagen,  Denmark     (SOPPA(CCSD), SOPPA prop., AOSOPPA, vibrational g-factors)
  Bernd Schimmelpfennig,       Forschungszentrum KarlsruheGermany     (AMFI module)
  Anna K. Schnack-Petersen,    University of Copenhagen,  Denmark     (RPA(D) and HRPA(D) properties in AOSOPPA)
  Kristian Sneskov,            Aarhus University,         Denmark     (Polarizable embedding, QM/MM)
  Arnfinn H. Steindal,         UiT The Arctic U. of NorwayNorway      (parallel QM/MM, polarizable embedding)
  Casper Steinmann,            Aalborg University,        Denmark     (QFIT, polarizable embedding)
  K. O. Sylvester-Hvid,        University of Copenhagen,  Denmark     (MC-SCRF)
  Peter R. Taylor,             VLSCI/Univ. of Melbourne,  Australia   (Symmetry handling ABACUS, integral transformation)
  Andrew M. Teale,             University of Nottingham,  England     (DFT-AC, DFT-D)
  David P. Tew,                University of Bristol,     England     (CCSD(R12))
  Julien Toulouse,             Sorbonne Univ.,            France      (MC-srDFT)
  Olav Vahtras,                KTH Stockholm,             Sweden      (Triplet response, spin-orbit, ESR, TDDFT, open-shell DFT)
  Lucas Visscher,              Vrije Universiteit AmsterdaNetherlands (Frozen density embedding)
  David J. Wilson,             La Trobe University,       Australia   (DFT Hessian and DFT magnetizabilities)
  Luna Zamok,                  University of Copenhagen,  Denmark     (Block Lanczos RPA solver in SOPPA module)
  Hans Agren,                  KTH Stockholm,             Sweden      (SIRIUS module, RESPONS, MC-SCRF solvation)
 --------------------------------------------------------------------------------

     Date and time (Linux)  : Thu May  7 16:33:14 2026
     Host name              : debian                                  

 * Work memory size             :    64000000 =  488.28 megabytes.

 * Directories for basis set searches:
   1) /home/vdwv/DIPLOM_ITMO/CALCULATIONS_AND_SOFTS/softwares/Dalton_Shenanigans/dalton/dalton/build/diplom_files/ch4/dft/ch4_dft_b3lyp_ccpvdz
   2) /home/vdwv/DIPLOM_ITMO/CALCULATIONS_AND_SOFTS/softwares/Dalton_Shenanigans/dalton/dalton/build/basis


Compilation information
-----------------------

 Who compiled             | vdwv
 Host                     | debian
 System                   | Linux-6.12.73+deb13-amd64
 CMake generator          | Unix Makefiles
 Processor                | x86_64
 64-bit integers          | OFF
 MPI                      | OFF
 Fortran compiler         | /usr/bin/gfortran
 Fortran compiler version | GNU Fortran (Debian 14.2.0-19) 14.2.0
 C compiler               | /usr/bin/gcc
 C compiler version       | gcc (Debian 14.2.0-19) 14.2.0
 C++ compiler             | /usr/bin/g++
 C++ compiler version     | g++ (Debian 14.2.0-19) 14.2.0
 BLAS                     | /opt/intel/oneapi/mkl/2025.3/lib/intel64/libmkl_gf
                          | _lp64.so;/opt/intel/oneapi/mkl/2025.3/lib/intel64/
                          | libmkl_sequential.so;/opt/intel/oneapi/mkl/2025.3/
                          | lib/intel64/libmkl_core.so;/usr/lib/x86_64-linux-g
                          | nu/libpthread.a;/usr/lib/x86_64-linux-gnu/libm.so
 LAPACK                   | /opt/intel/oneapi/mkl/2025.3/lib/intel64/libmkl_la
                          | pack95_lp64.a;/opt/intel/oneapi/mkl/2025.3/lib/int
                          | el64/libmkl_gf_lp64.so
 Static linking           | OFF
 Last Git revision        | 1892235f9264b9be21ec2fefe6e0081d659ab244
 Git branch               | master
 Configuration time       | 2026-05-04 17:50:26.788788

 * Sequential calculation.


   Content of the .dal input file
 ----------------------------------

BASIS
cc-pVDZ
Methane CH4 using the cc-pVDZ basis
Using automatic symmetry detection
AtomTypes=2 Angstrom
Charge=6.0 Atoms=1
C     0.000      0.000      0.000
Charge=1.0 Atoms=4
H1    0.635      0.635      0.635
H2   -0.635     -0.635      0.635
H3   -0.635      0.635     -0.635
H4    0.635     -0.635     -0.635

**DALTON INPUT
.RUN WAVE FUN
**WAVE FUN
.DFT
 B3LYP
**END OF



       *******************************************************************
       *********** Output from DALTON general input processing ***********
       *******************************************************************

 --------------------------------------------------------------------------------
   Overall default print level:    0
   Print level for DALTON.STAT:    1

    HERMIT 1- and 2-electron integral sections will be executed
    "Old" integral transformation used (limited to max 255 basis functions)
    Wave function sections will be executed (SIRIUS module)
 --------------------------------------------------------------------------------


   ****************************************************************************
   *************** Output of molecule and basis set information ***************
   ****************************************************************************


    The two title cards from your ".mol" input:
    --------------------------------------------------------------------------------
 1: Methane CH4 using the cc-pVDZ basis
 2: Using automatic symmetry detection
    --------------------------------------------------------------------------------

  Coordinates are entered in Angstrom and converted to atomic units.
          - Conversion factor : 1 bohr = 0.52917721080 A

  Atomic type no.    1
  --------------------
  Nuclear charge:   6.00000
  Number of symmetry independent centers:    1
  Number of basis sets to read;    2
  Basis set file used for this atomic type with Z =   6 :
     "/home/vdwv/DIPLOM_ITMO/CALCULATIONS_AND_SOFTS/softwares/Dalton_Shenanigans/dalton/dalton/build/basis/cc-pVDZ"

  Atomic type no.    2
  --------------------
  Nuclear charge:   1.00000
  Number of symmetry independent centers:    4
  Number of basis sets to read;    2
  Basis set file used for this atomic type with Z =   1 :
     "/home/vdwv/DIPLOM_ITMO/CALCULATIONS_AND_SOFTS/softwares/Dalton_Shenanigans/dalton/dalton/build/basis/cc-pVDZ"


                      SYMADD: Addition of symmetry requested
                      --------------------------------------

 Symmetry test threshold:  5.00E-06

@  The molecule has been centered at center of mass and rotated
@  so the principal axes of inertia are along coordinate axes.

 Symmetry class found: T(d)           

 Symmetry Independent Centres             
 ----------------------------
C      6 :      0.00000000     0.00000000     0.00000000  Isotope  1
H2     1 :      1.69702246    -0.97977637    -0.69280652  Isotope  1
H3     1 :      0.00000000     1.95955275    -0.69280652  Isotope  1
H4     1 :      0.00000000     0.00000000     2.07841955  Isotope  1

 The following symmetry element was found:   X        


                         SYMGRP: Point group information
                         -------------------------------

@    Full point group is: T(d)           
@    Represented as:      Cs 

@  * The irrep name for each symmetry:    1: A'     2: A" 

   * The point group was generated by:

      Reflection in the yz-plane

   * Group multiplication table

        |  E   Oyz
   -----+----------
     E  |  E   Oyz
    Oyz | Oyz   E 

   * Character table

        |  E   Oyz
   -----+----------
    A'  |   1    1
    A"  |   1   -1

   * Direct product table

        | A'   A" 
   -----+----------
    A'  | A'   A" 
    A"  | A"   A' 


                                 Isotopic Masses
                                 ---------------

                           C          12.000000
                           H2  _1      1.007825
                           H2  _2      1.007825
                           H3          1.007825
                           H4          1.007825

                       Total mass:    16.031300 amu
                       Natural abundance:  98.841 %

 Center-of-mass coordinates (a.u.):    0.000000   -0.000000    0.000000
 Center-of-mass coordinates (Angs):    0.000000   -0.000000    0.000000


  Atoms and basis sets
  --------------------

  Number of atom types :    2
  Total number of atoms:    5

  Basis set used is "cc-pVDZ" from the basis set library.

  label    atoms   charge   prim   cont     basis
  ----------------------------------------------------------------------
  C           1    6.0000    26    14      [9s4p1d|3s2p1d]                                    
  H4          4    1.0000     7     5      [4s1p|2s1p]                                        
  ----------------------------------------------------------------------
  total:      5   10.0000    54    34
  ----------------------------------------------------------------------
  Spherical harmonic basis used.

  Threshold for neglecting AO integrals:  1.00D-12


  Cartesian Coordinates (bohr)
  ----------------------------

  Total number of coordinates:   15
  C       :     1  x   0.0000000000    2  y   0.0000000000    3  z   0.0000000000
  H2  / 1 :     4  x   1.6970224601    5  y  -0.9797763742    6  z  -0.6928065182
  H2  / 2 :     7  x  -1.6970224601    8  y  -0.9797763742    9  z  -0.6928065182
  H3      :    10  x   0.0000000000   11  y   1.9595527483   12  z  -0.6928065182
  H4      :    13  x   0.0000000000   14  y   0.0000000000   15  z   2.0784195547


  Cartesian Coordinates (xyz format; angstrom)
  --------------------------------------------

    5

  C        0.0000000000            0.0000000000            0.0000000000
  H        0.8980256121           -0.5184753289           -0.3666174209
  H       -0.8980256121           -0.5184753289           -0.3666174209
  H        0.0000000000            1.0369506578           -0.3666174209
  H        0.0000000000            0.0000000000            1.0998522628


  Symmetry Coordinates
  --------------------

  Number of coordinates in each symmetry:     9    6

  Symmetry  A'  ( 1)

    1   C     y    2
    2   C     z    3
    3   H2    x    [  4  -    7 ]/2
    4   H2    y    [  5  +    8 ]/2
    5   H2    z    [  6  +    9 ]/2
    6   H3    y   11
    7   H3    z   12
    8   H4    y   14
    9   H4    z   15

  Symmetry  A"  ( 2)

   10   C     x    1
   11   H2    x    [  4  +    7 ]/2
   12   H2    y    [  5  -    8 ]/2
   13   H2    z    [  6  -    9 ]/2
   14   H3    x   10
   15   H4    x   13


   Interatomic separations (in Angstrom):
   --------------------------------------

            C           H2  _1      H2  _2      H3          H4    
            ------      ------      ------      ------      ------
 C     :    0.000000
 H2  _1:    1.099852    0.000000
 H2  _2:    1.099852    1.796051    0.000000
 H3    :    1.099852    1.796051    1.796051    0.000000
 H4    :    1.099852    1.796051    1.796051    1.796051    0.000000


  Max    interatomic separation is    1.7961 Angstrom (    3.3940 Bohr)
  between atoms    4 and    2, "H3    " and "H2  _1".

  Min HX interatomic separation is    1.0999 Angstrom (    2.0784 Bohr)


  Bond distances (Angstrom):
  --------------------------

                  atom 1     atom 2       distance
                  ------     ------       --------
  bond distance:  H2  _1     C            1.099852
  bond distance:  H2  _2     C            1.099852
  bond distance:  H3         C            1.099852
  bond distance:  H4         C            1.099852


  Bond angles (degrees):
  ----------------------

                  atom 1     atom 2     atom 3         angle
                  ------     ------     ------         -----
  bond angle:     H2  _1     C          H2  _2       109.471
  bond angle:     H2  _1     C          H3           109.471
  bond angle:     H2  _1     C          H4           109.471
  bond angle:     H2  _2     C          H3           109.471
  bond angle:     H2  _2     C          H4           109.471
  bond angle:     H3         C          H4           109.471




 Principal moments of inertia (u*A**2) and principal axes
 --------------------------------------------------------

   IA       3.251042          0.000000    1.000000    0.000000
   IB       3.251042          0.000000    0.000000    1.000000
   IC       3.251042          1.000000    0.000000    0.000000


 Rotational constants
 --------------------

               A                   B                   C

         155451.3980         155451.3980         155451.3980 MHz
            5.185300            5.185300            5.185300 cm-1


@  Nuclear repulsion energy :   13.315037645864 Hartree


  Symmetry Orbitals
  -----------------

  Number of orbitals in each symmetry:          23   11


  Symmetry  A' ( 1)

    1     C        1s         1
    2     C        1s         2
    3     C        1s         3
    4     C        2py        5
    5     C        2pz        6
    6     C        2py        8
    7     C        2pz        9
    8     C        3d1-      11
    9     C        3d0       12
   10     C        3d2+      14
   11     H2       1s        15 +   16
   12     H2       1s        17 +   18
   13     H2       2px       19 -   20
   14     H2       2py       21 +   22
   15     H2       2pz       23 +   24
   16     H3       1s        25
   17     H3       1s        26
   18     H3       2py       28
   19     H3       2pz       29
   20     H4       1s        30
   21     H4       1s        31
   22     H4       2py       33
   23     H4       2pz       34


  Symmetry  A" ( 2)

   24     C        2px        4
   25     C        2px        7
   26     C        3d2-      10
   27     C        3d1+      13
   28     H2       1s        15 -   16
   29     H2       1s        17 -   18
   30     H2       2px       19 +   20
   31     H2       2py       21 -   22
   32     H2       2pz       23 -   24
   33     H3       2px       27
   34     H4       2px       32

  Symmetries of electric field:  A" (2)  A' (1)  A' (1)

  Symmetries of magnetic field:  A' (1)  A" (2)  A" (2)


                     .---------------------------------------.
                     | Starting in Integral Section (HERMIT) |
                     `---------------------------------------'



 ***************************************************************************************
 ****************** Output from **INTEGRALS input processing (HERMIT) ******************
 ***************************************************************************************


 - Using defaults, no **INTEGRALS input found

 Default print level:        1

 Calculation of one- and two-electron Hamiltonian integrals.

 Center of mass  (bohr):      0.000000000000     -0.000000000000      0.000000000000
 Operator center (bohr):      0.000000000000      0.000000000000      0.000000000000
 Gauge origin    (bohr):      0.000000000000     -0.000000000000      0.000000000000
 Dipole origin   (bohr):      0.000000000000     -0.000000000000      0.000000000000

Calculation of 2-electron integrals are postponed until they are needed.


     ************************************************************************
     ************************** Output from HERINT **************************
     ************************************************************************



                      Nuclear contribution to dipole moments
                      --------------------------------------

                 au               Debye          C m (/(10**-30)

      y     -0.00000000        -0.00000000        -0.00000000
      z      0.00000000         0.00000000         0.00000000


  Total CPU  time used in HERMIT:   0.02 seconds
  Total wall time used in HERMIT:   0.02 seconds


                        .----------------------------------.
                        | End of Integral Section (HERMIT) |
                        `----------------------------------'



                   .--------------------------------------------.
                   | Starting in Wave Function Section (SIRIUS) |
                   `--------------------------------------------'


 *** Output from Huckel module :

     Using EWMO model:          F
     Using EHT  model:          T
     Number of Huckel orbitals each symmetry:    7    2

 Huckel EHT eigenvalues for symmetry :  1
          -11.379473      -1.218259      -0.609707      -0.609707      -0.227772
           -0.205525      -0.205525

 Huckel EHT eigenvalues for symmetry :  2
           -0.609707      -0.205525

 **********************************************************************
 *SIRIUS* a direct, restricted step, second order MCSCF program       *
 **********************************************************************

 
     Date and time (Linux)  : Thu May  7 16:33:14 2026
     Host name              : debian                                  

 Title lines from ".mol" input file:
     Methane CH4 using the cc-pVDZ basis
     Using automatic symmetry detection

 Print level on unit LUPRI =   2 is   0
 Print level on unit LUW4  =   2 is   5

@    Restricted, closed shell Kohn-Sham DFT calculation.

 Initial molecular orbitals are obtained according to
 ".MOSTART EHT   " input option

     Wave function specification
     ============================
@    Wave function type        --- KS-DFT ---
@    Number of closed shell electrons          10
@    Number of electrons in active shells       0
@    Total charge of the molecule               0

@    Spin multiplicity and 2 M_S                1         0
@    Total number of symmetries                 2 (point group: Cs )
@    Reference state symmetry                   1 (irrep name : A' )
 
     This is a DFT calculation of type: B3LYP
 Weighted mixed functional:
               HF exchange:    0.20000
                       VWN:    0.19000
                       LYP:    0.81000
                     Becke:    0.72000
                    Slater:    0.80000

     Orbital specifications
     ======================
@    Abelian symmetry species          All |    1    2
@                                          |  A'   A" 
                                       --- |  ---  ---
@    Total number of orbitals           34 |   23   11
@    Number of basis functions          34 |   23   11

      ** Automatic occupation of RKS orbitals **

      -- Initial occupation of symmetries is determined from extended Huckel guess.           
      -- Initial occupation of symmetries is :
@    Occupied SCF orbitals               5 |    4    1

     Maximum number of Fock   iterations      0
     Maximum number of DIIS   iterations     60
     Maximum number of QC-SCF iterations     60
     Threshold for SCF convergence     1.00D-05
 
     This is a DFT calculation of type: B3LYP
 Weighted mixed functional:
               HF exchange:    0.20000
                       VWN:    0.19000
                       LYP:    0.81000
                     Becke:    0.72000
                    Slater:    0.80000


 ***********************************************
 ***** DIIS acceleration of SCF iterations *****
 ***********************************************

 C1-DIIS algorithm; max error vectors =    8

 Automatic occupation of symmetries with  10 electrons.

 Iter     Total energy    Error norm  Delta(E)    SCF occupation
 -----------------------------------------------------------------------------

---> (Re)generating AOTWOINT


     ************************************************************************
     ************************** Output from HERINT **************************
     ************************************************************************


***  INFO  GETGAB: GABSO--- not found on AOGABINT. Regenerating.

 Threshold for neglecting two-electron integrals:  1.00D-12
 HERMIT - Number of two-electron integrals written:       83431 ( 47.1% )
 HERMIT - Megabytes written:                              0.961

      K-S energy, electrons, error :     -5.269815257381  10.0000000119    1.19D-08
@  1  -40.2611733791       1.89D+00  -4.03D+01     4   1
      Virial theorem: -V/T =      2.037850
@    MULPOP   C       0.35; H2  _1 -0.09; H2  _2 -0.09; H3     -0.09; H4     -0.09; 
   1  Level shift: doubly occupied orbital energies shifted by -2.00D-01
 -----------------------------------------------------------------------------
      K-S energy, electrons, error :     -5.679872035548   9.9999999407   -5.93D-08
@  2  -40.4007556705       1.15D+00  -1.40D-01     4   1
      Virial theorem: -V/T =      1.984154
@    MULPOP   C      -0.60; H2  _1  0.15; H2  _2  0.15; H3      0.15; H4      0.15; 
   2  Level shift: doubly occupied orbital energies shifted by -2.00D-01
 -----------------------------------------------------------------------------
      K-S energy, electrons, error :     -5.546496843070   9.9999999253   -7.47D-08
@  3  -40.4799229572       6.67D-02  -7.92D-02     4   1
      Virial theorem: -V/T =      2.010722
@    MULPOP   C      -0.14; H2  _1  0.03; H2  _2  0.03; H3      0.03; H4      0.03; 
   3  Level shift: doubly occupied orbital energies shifted by -5.00D-02
 -----------------------------------------------------------------------------
      K-S energy, electrons, error :     -5.539304758223   9.9999999207   -7.93D-08
@  4  -40.4803437158       2.28D-02  -4.21D-04     4   1
      Virial theorem: -V/T =      2.011050
@    MULPOP   C      -0.12; H2  _1  0.03; H2  _2  0.03; H3      0.03; H4      0.03; 
   4  Level shift: doubly occupied orbital energies shifted by -2.50D-02
 -----------------------------------------------------------------------------
      K-S energy, electrons, error :     -5.542092444239   9.9999999198   -8.02D-08
@  5  -40.4803780651       8.13D-04  -3.43D-05     4   1
      Virial theorem: -V/T =      2.010508
@    MULPOP   C      -0.13; H2  _1  0.03; H2  _2  0.03; H3      0.03; H4      0.03; 
 -----------------------------------------------------------------------------
      K-S energy, electrons, error :     -5.542189838130   9.9999999197   -8.03D-08
@  6  -40.4803781277       2.08D-05  -6.26D-08     4   1
      Virial theorem: -V/T =      2.010486
@    MULPOP   C      -0.13; H2  _1  0.03; H2  _2  0.03; H3      0.03; H4      0.03; 
 -----------------------------------------------------------------------------
      K-S energy, electrons, error :     -5.542187791878   9.9999999197   -8.03D-08
@  7  -40.4803781277       6.19D-06  -2.60D-11     4   1

@ *** DIIS converged in   7 iterations !
@     Converged SCF energy, gradient:    -40.480378127730    6.19D-06
    - total time used in SIRFCK :              0.05 seconds


 *** SCF orbital energy analysis ***

 Only the 20 lowest virtual orbital energies printed in each symmetry.

 Number of electrons        :   10
 Closed shell orbitals      :    4    1

 Sym       Kohn-Sham orbital energies

1 A'    -10.17101449    -0.68687688    -0.38505787    -0.38505802     0.07594468
          0.14586653     0.14586639     0.41692389     0.41692397     0.65314673
          0.65314667     0.68044339     0.90425661     1.04468961     1.41830846
          1.61356655     1.61356655     1.92408181     1.92408151     2.23662975
          2.39520507     2.43062192     2.43062182

2 A"     -0.38505764     0.14586664     0.41692414     0.65314686     0.90425664
          1.41830872     1.41830858     1.61356662     1.92408143     2.23662997
          2.43062199

    E(LUMO) :     0.07594468 au (symmetry 1)
  - E(HOMO) :    -0.38505764 au (symmetry 2)
  ------------------------------------------
    gap     :     0.46100232 au

 --- Writing SIRIFC interface file

--------------------------------------------------------------------------------


     .-----------------------------------------------.
     | DFT KT IPs [a.u. & eV] from Koopmans' theorem |
     `-----------------------------------------------'


     DFT KT symmetry 1 ( A' ) in point group Cs  -- 4 principal poles with pole strength 1

   ============  ============  ============  ============
      10.171014      0.686877      0.385058      0.385058
     276.767383     18.690871     10.477962     10.477958
   ============  ============  ============  ============

     DFT KT symmetry 2 ( A" ) in point group Cs  -- 1 principal poles with pole strength 1

   ============
       0.385058
      10.477951
   ============

@ Summary of DFT KT ionization potentials [eV]:

@ Symmetry 1 (A' ) :   276.767      18.691      10.478      10.478

@ Symmetry 2 (A" ) :    10.478

  === End of DFT KT output ===
--------------------------------------------------------------------------------


 CPU and wall time for SCF :       2.005       2.005


                       .-----------------------------------.
                       | --- Final results from SIRIUS --- |
                       `-----------------------------------'


@    Spin multiplicity:           1
@    Spatial symmetry:            1 ( irrep  A'  in Cs  )
@    Total charge of molecule:    0

@    Final DFT energy:            -40.480378127730                 
@    Nuclear repulsion:            13.315037645864
@    Electronic energy:           -53.795415773594

@    Final gradient norm:           0.000006189414

 
     Date and time (Linux)  : Thu May  7 16:33:16 2026
     Host name              : debian                                  

File label for MO orbitals:   7May26   FOCKDIIS

 (Only coefficients > 0.0100 are printed.)

 Molecular orbitals for symmetry species 1  (A' )
 ------------------------------------------------

    Orbital         1        2        3        4        5        6        7
   1 C   :1s     1.0061  -0.0248  -0.0000  -0.0000   0.0646   0.0000   0.0000
   2 C   :1s     0.0340   0.7639   0.0000   0.0000  -0.3285  -0.0000  -0.0000
   3 C   :1s    -0.0311  -0.2194  -0.0000   0.0000  -1.9572  -0.0000  -0.0000
   4 C   :2py   -0.0000  -0.0000   0.5930  -0.2824   0.0000  -0.4903   0.2868
   5 C   :2pz   -0.0000  -0.0000   0.2824   0.5930   0.0000  -0.2868  -0.4903
   6 C   :2py    0.0000   0.0000  -0.1151   0.0548   0.0000  -0.8608   0.5034
   7 C   :2pz    0.0000   0.0000  -0.0548  -0.1151   0.0000  -0.5034  -0.8608
   9 C   :3d0   -0.0000  -0.0000   0.0082   0.0172  -0.0000   0.0012   0.0020
  10 C   :3d2+   0.0000  -0.0000  -0.0140   0.0067   0.0000  -0.0016   0.0010
  11 H2  :1s    -0.0025   0.3104  -0.3729  -0.0644   0.0605  -0.1222  -0.0106
  12 H2  :1s     0.0034  -0.1232   0.0865   0.0149   0.7644  -1.1120  -0.0962
  13 H2  :2px    0.0016  -0.0202   0.0135   0.0023  -0.0002  -0.0021  -0.0002
  14 H2  :2py   -0.0009   0.0117   0.0056  -0.0077   0.0001  -0.0060   0.0043
  15 H2  :2pz   -0.0007   0.0083   0.0009   0.0125   0.0001  -0.0034  -0.0071
  16 H3  :1s    -0.0025   0.3104   0.4640  -0.4629   0.0605   0.1371  -0.1622
  17 H3  :1s     0.0034  -0.1232  -0.1076   0.1074   0.7644   1.2480  -1.4765
  18 H3  :2py    0.0018  -0.0233  -0.0060   0.0129  -0.0002  -0.0045   0.0010
  19 H3  :2pz   -0.0007   0.0083   0.0132   0.0066   0.0001  -0.0052  -0.0061
  20 H4  :1s    -0.0025   0.3104   0.2818   0.5917   0.0605   0.1072   0.1834
  21 H4  :1s     0.0034  -0.1232  -0.0654  -0.1373   0.7644   0.9761   1.6688
  22 H4  :2py   -0.0000  -0.0000   0.0134  -0.0064   0.0000  -0.0072   0.0042
  23 H4  :2pz    0.0020  -0.0248  -0.0061  -0.0128  -0.0002  -0.0020  -0.0033

    Orbital         8        9       10       11       12       13       14
   1 C   :1s     0.0000   0.0000   0.0000  -0.0000  -0.2290  -0.0000   0.9223
   2 C   :1s     0.0000   0.0000   0.0000  -0.0000  -1.4772  -0.0000   3.7972
   3 C   :1s    -0.0000  -0.0000  -0.0000   0.0000   1.8721  -0.0000  -7.2234
   4 C   :2py    0.3470  -0.2782  -0.7307   1.0728  -0.0000  -0.0000   0.0000
   5 C   :2pz   -0.2782  -0.3470  -1.0728  -0.7307  -0.0000  -0.0000   0.0000
   6 C   :2py   -1.0261   0.8228   1.3596  -1.9963   0.0000  -0.0000  -0.0000
   7 C   :2pz    0.8228   1.0261   1.9963   1.3596   0.0000  -0.0000  -0.0000
   8 C   :3d1-  -0.0602   0.0483  -0.0914   0.1342  -0.0000  -0.4420   0.0000
   9 C   :3d0   -0.0837  -0.1043   0.2324   0.1583   0.0000   0.0000  -0.0000
  10 C   :3d2+  -0.0852   0.0683  -0.1292   0.1897  -0.0000   0.3125   0.0000
  11 H2  :1s    -0.2254   0.7854  -0.3729   0.1393   1.0159  -0.0000   0.9400
  12 H2  :1s     0.1441  -0.5021   1.2475  -0.4659  -1.0028  -0.0000   0.2782
  13 H2  :2px   -0.0074   0.0257  -0.1341   0.0501   0.1270   0.1526  -0.0560
  14 H2  :2py   -0.0281   0.0111   0.0454   0.0181  -0.0733   0.1762   0.0323
  15 H2  :2pz    0.0290   0.0219   0.0078  -0.0524  -0.0519   0.1246   0.0228
  16 H3  :1s     1.3361  -0.4667   0.1760  -0.6667   1.0159   0.0000   0.9400
  17 H3  :1s    -0.8541   0.2984  -0.5887   2.2301  -1.0029   0.0000   0.2782
  18 H3  :2py    0.0181   0.0083   0.0411  -0.2298   0.1467  -0.0881  -0.0646
  19 H3  :2pz    0.0081   0.0386  -0.0728   0.0659  -0.0519  -0.2492   0.0228
  20 H4  :1s    -0.8854  -1.1041   0.5698   0.3881   1.0159   0.0000   0.9400
  21 H4  :1s     0.5660   0.7058  -1.9063  -1.2984  -1.0029   0.0000   0.2782
  22 H4  :2py   -0.0324   0.0260  -0.0320   0.0470  -0.0000  -0.2643   0.0000
  23 H4  :2pz   -0.0095  -0.0118   0.2039   0.1389   0.1556   0.0000  -0.0685

 Molecular orbitals for symmetry species 2  (A" )
 ------------------------------------------------

    Orbital         1        2        3        4        5        6        7
   1 C   :2px    0.6568   0.5680   0.4447  -1.2980   0.0000  -0.0000   0.0000
   2 C   :2px   -0.1275   0.9972  -1.3153   2.4153  -0.0000  -0.0000  -0.0000
   3 C   :3d2-  -0.0155   0.0019  -0.1092  -0.2295  -0.3125   0.0000  -0.0000
   4 C   :3d1+  -0.0110   0.0013  -0.0772  -0.1623   0.4420   0.0000   0.0000
   5 H2  :1s     0.5351  -0.1734   1.1556   0.5630   0.0000   0.0000   0.0000
   6 H2  :1s    -0.1241  -1.5785  -0.7387  -1.8832  -0.0000  -0.0000   0.0000
   7 H2  :2px   -0.0045   0.0054  -0.0037   0.1456  -0.0000   0.3684   0.0000
   8 H2  :2py    0.0112   0.0017  -0.0218  -0.1169  -0.1526   0.4253   0.3008
   9 H2  :2pz    0.0079   0.0012  -0.0154  -0.0826   0.2158   0.3008  -0.4253
  10 H3  :2px    0.0149   0.0083  -0.0415  -0.0568  -0.2643  -0.3684  -0.5209
  11 H4  :2px    0.0149   0.0083  -0.0415  -0.0568   0.2643  -0.3684   0.5209

    Orbital         8        9       10       11
   1 C   :2px   -0.1118   0.3867  -0.0000   1.9777
   2 C   :2px    1.0663   0.5973   0.0000   0.0553
   3 C   :3d2-  -0.5762   0.6202  -0.7534  -1.1576
   4 C   :3d1+  -0.4074   0.4386   1.0655  -0.8185
   5 H2  :1s    -1.1248   0.1871  -0.0000  -2.1062
   6 H2  :1s     0.4600  -0.5984  -0.0000   0.4263
   7 H2  :2px   -0.3630  -0.1114   0.0000   0.9770
   8 H2  :2py    0.0187  -0.3537   0.3679  -0.5365
   9 H2  :2pz    0.0132  -0.2501  -0.5203  -0.3793
  10 H3  :2px   -0.3307  -0.7240   0.6373   0.0478
  11 H4  :2px   -0.3307  -0.7240  -0.6373   0.0478

  Total CPU  time used in SIRIUS :   2.01 seconds
  Total wall time used in SIRIUS :   2.01 seconds

 
     Date and time (Linux)  : Thu May  7 16:33:16 2026
     Host name              : debian                                  


                     .---------------------------------------.
                     | End of Wave Function Section (SIRIUS) |
                     `---------------------------------------'

  Total CPU  time used in DALTON:   2.04 seconds
  Total wall time used in DALTON:   2.04 seconds

 
     Date and time (Linux)  : Thu May  7 16:33:16 2026
     Host name              : debian                                  
