

     ************************************************************************
     *************** Dalton - An Electronic Structure Program ***************
     ************************************************************************

    This is output from DALTON release Dalton2025.0-dev (2025)
         ( Web site: http://daltonprogram.org )

   ----------------------------------------------------------------------------

    NOTE:
     
    Dalton is an experimental code for the evaluation of molecular
    properties using (MC)SCF, DFT, CI, and CC wave functions.
    The authors accept no responsibility for the performance of
    the code or for the correctness of the results.
     
    The code (in whole or part) is provided under a licence and
    is not to be reproduced for further distribution without
    the written permission of the authors or their representatives.
     
    See the home page "http://daltonprogram.org" for further information.
     
    If results obtained with this code are published,
    the appropriate citations would be both of:
     
       K. Aidas, C. Angeli, K. L. Bak, V. Bakken,
       R. Bast, L. Boman, O. Christiansen, R. Cimiraglia,
       S. Coriani, P. Dahle, E. K. Dalskov, U. Ekstroem,
       T. Enevoldsen, J. J. Eriksen, P. Ettenhuber, B. Fernandez,
       L. Ferrighi, H. Fliegl, L. Frediani, K. Hald, A. Halkier,
       C. Haettig, H. Heiberg, T. Helgaker, A. C. Hennum,
       H. Hettema, E. Hjertenaes, S. Hoest, I.-M. Hoeyvik,
       M. F. Iozzi, B. Jansik, H. J. Aa. Jensen, D. Jonsson,
       P. Joergensen, J. Kauczor, S. Kirpekar,
       T. Kjaergaard, W. Klopper, S. Knecht, R. Kobayashi, H. Koch,
       J. Kongsted, A. Krapp, K. Kristensen, A. Ligabue,
       O. B. Lutnaes, J. I. Melo, K. V. Mikkelsen, R. H. Myhre,
       C. Neiss, C. B. Nielsen, P. Norman, J. Olsen,
       J. M. H. Olsen, A. Osted, M. J. Packer, F. Pawlowski,
       T. B. Pedersen, P. F. Provasi, S. Reine, Z. Rinkevicius,
       T. A. Ruden, K. Ruud, V. Rybkin, P. Salek, C. C. M. Samson,
       A. Sanchez de Meras, T. Saue, S. P. A. Sauer,
       B. Schimmelpfennig, K. Sneskov, A. H. Steindal,
       K. O. Sylvester-Hvid, P. R. Taylor, A. M. Teale,
       E. I. Tellgren, D. P. Tew, A. J. Thorvaldsen, L. Thoegersen,
       O. Vahtras, M. A. Watson, D. J. D. Wilson, M. Ziolkowski
       and H. Agren,
       "The Dalton quantum chemistry program system",
       WIREs Comput. Mol. Sci. 2014, 4:269-284 (doi: 10.1002/wcms.1172)
     
    and
     
       Dalton, a molecular electronic structure program,
       Release Dalton2025.0-dev (2025), see http://daltonprogram.org
   ----------------------------------------------------------------------------

    Authors in alphabetical order (Major contribution(s) in parenthesis):

  Kestutis Aidas,              Vilnius University,        Lithuania   (QM/MM)
  Celestino Angeli,            University of Ferrara,     Italy       (NEVPT2)
  Juan J. Aucar,               Northeast National UniversiArgentina   (LRESC, Relativistic Effects on NMR Shieldings and EFG)
  Keld L. Bak,                 UNI-C,                     Denmark     (AOSOPPA, non-adiabatic coupling, magnetic properties)
  Vebjoern Bakken,             University of Oslo,        Norway      (DALTON; geometry optimizer, symmetry detection)
  Radovan Bast,                UiT The Arctic U. of NorwayNorway      (DALTON installation and execution frameworks)
  Pablo Baudin,                University of Valencia,    Spain       (Cholesky excitation energies)
  Linus Boman,                 NTNU,                      Norway      (Cholesky decomposition and subsystems)
  Bruno N. Cabral Tenorio,     Technical Univ. of Denmark,Denmark     (Lanczos-based CC methods)
  Ove Christiansen,            Aarhus University,         Denmark     (CC module)
  Renzo Cimiraglia,            University of Ferrara,     Italy       (NEVPT2)
  Sonia Coriani,               Technical Univ. of Denmark,Denmark     (CC and RESPONS modules)
  Janusz Cukras,               University of Warsaw,      Poland      (MChD in RESPONS)
  Paal Dahle,                  University of Oslo,        Norway      (Parallelization)
  Erik K. Dalskov,             UNI-C,                     Denmark     (SOPPA)
  Thomas Enevoldsen,           Univ. of Southern Denmark, Denmark     (SOPPA)
  Janus J. Eriksen,            Aarhus University,         Denmark     (Polarizable embedding, TDA)
  Rasmus Faber,                Technical Univ. of Denmark,Denmark     (Vib.avg. NMR w. SOPPA, parallel AO-SOPPA, CVS-CC and EOMCC)
  Tobias Fahleson,             KTH Stockholm,             Sweden      (Damped cubic response)
  Berta Fernandez,             U. of Santiago de CompostelSpain       (Doublet spin, ESR in RESPONS)
  Lara Ferrighi,               Aarhus University,         Denmark     (PCM Cubic response)
  Heike Fliegl,                University of Oslo,        Norway      (CCSD(R12))
  Luca Frediani,               UiT The Arctic U. of NorwayNorway      (PCM)
  Emmanuel Fromager,           Univ. Strasbourg,          France      (MC-srDFT)
  Bin Gao,                     UiT The Arctic U. of NorwayNorway      (Gen1Int library)
  Andre S. P. Gomes,           CNRS/Universite de Lille,  France      (Frozen density embedding)
  Christof Haettig,            Ruhr-University Bochum,    Germany     (CC module)
  Kasper Hald,                 Aarhus University,         Denmark     (CC module)
  Asger Halkier,               Aarhus University,         Denmark     (CC module)
  Frederik Beyer Hansen,       University of Copenhagen,  Denmark     (Parallel AO-SOPPA)
  Erik D. Hedegaard,           Univ. of Southern Denmark, Denmark     (Polarizable embedding, QM/MM, and MC-srDFT)
  Hanne Heiberg,               University of Oslo,        Norway      (Geometry analysis, selected one-electron integrals)
  Trygve Helgaker,             University of Oslo,        Norway      (DALTON; ABACUS, ERI, DFT modules, London, and much more)
  Alf Christian Hennum,        University of Oslo,        Norway      (Parity violation)
  Hinne Hettema,               University of Auckland,    New Zealand (Quadratic response in RESPONS; SIRIUS supersymmetry)
  Andreas E. Hillers-Bendtsen, University of Copenhagen,  Denmark     (MP3)
  Eirik Hjertenaes,            NTNU,                      Norway      (Cholesky decomposition)
  Nicolai Machholdt Hoeyer,    Aarhus University,         Denmark     (MP3)
  Pi A. B. Haase,              University of Copenhagen,  Denmark     (Triplet AO-SOPPA)
  Maria Francesca Iozzi,       University of Oslo,        Norway      (RPA)
  Christoph Jacob,             TU Braunschweig            Germany     (Frozen density embedding)
  Brano Jansik,                Technical Univ. of Ostrava Czech Rep.  (DFT cubic response)
  Hans Joergen Aa. Jensen,     Univ. of Southern Denmark, Denmark     (DALTON; SIRIUS, RESPONS, ABACUS, MC-srDFT, and much more)
  Dan Jonsson,                 UiT The Arctic U. of NorwayNorway      (Cubic response in RESPONS module)
  Poul Joergensen,             Aarhus University,         Denmark     (RESPONS, ABACUS, and CC modules)
  Maciej Kaminski,             University of Warsaw,      Poland      (CPPh in RESPONS)
  Joanna Kauczor,              Linkoeping University,     Sweden      (Complex polarization propagator (CPP) module)
  Sheela Kirpekar,             Univ. of Southern Denmark, Denmark     (Mass-velocity & Darwin integrals)
  Frederik Oersted Kjeldal,    Technical Univ. of Denmark,Denmark     (MP3)
  Erik Kjellgren,              Univ. of Southern Denmark, Denmark     (MC-srDFT)
  Wim Klopper,                 KIT Karlsruhe,             Germany     (R12 code in CC, SIRIUS, and ABACUS modules)
  Stefan Knecht,               ETH Zurich,                Switzerland (Parallel CI and MCSCF, MC-srDFT)
  Rika Kobayashi,              Australian National Univ., Australia   (DIIS in CC, London in MCSCF)
  Henrik Koch,                 NTNU,                      Norway      (CC module, Cholesky decomposition)
  Jacob Kongsted,              Univ. of Southern Denmark, Denmark     (Polarizable embedding, polarizable density embedding, QM/MM)
  Andrea Ligabue,              University of Modena,      Italy       (CTOCD, AOSOPPA)
  Nanna H. List,               Univ. of Southern Denmark, Denmark     (Polarizable embedding)
  Ola B. Lutnaes,              University of Oslo,        Norway      (DFT Hessian)
  Juan I. Melo,                University of Buenos Aires,Argentina   (LRESC, Relativistic Effects on NMR Shieldings)
  Kurt V. Mikkelsen,           University of Copenhagen,  Denmark     (MC-SCRF, QM/MM, and MP3)
  Rolf H. Myhre,               NTNU,                      Norway      (Subsystems and CC3)
  Christian Neiss,             Univ. Erlangen-Nuernberg,  Germany     (CCSD(R12))
  Christian B. Nielsen,        University of Copenhagen,  Denmark     (QM/MM)
  Patrick Norman,              KTH Stockholm,             Sweden      (Cubic response and complex frequency response in RESPONS)
  Jeppe Olsen,                 Aarhus University,         Denmark     (SIRIUS CI/density modules)
  Jogvan Magnus H. Olsen,      Aarhus University,         Denmark     (Polarizable embedding and polarizable density embedding)
  Anders Osted,                Copenhagen University,     Denmark     (QM/MM)
  Martin J. Packer,            University of Sheffield,   UK          (SOPPA)
  Filip Pawlowski,             Kazimierz Wielki UniversityPoland      (CC3)
  Morten N. Pedersen,          Univ. of Southern Denmark, Denmark     (Polarizable embedding)
  Thomas B. Pedersen,          University of Oslo,        Norway      (Cholesky decomposition)
  Patricio F. Provasi,         University of Northeastern,Argentina   (Analysis of coupling constants in localized orbitals)
  Peter Reinholdt,             Univ. of Southern Denmark, Denmark     (Polarizable embedding and polarizable density embedding)
  Zilvinas Rinkevicius,        KTH Stockholm,             Sweden      (open-shell DFT, ESR)
  Elias Rudberg,               KTH Stockholm,             Sweden      (DFT grid and basis info)
  Torgeir A. Ruden,            University of Oslo,        Norway      (Numerical derivatives in ABACUS)
  Kenneth Ruud,                UiT The Arctic U. of NorwayNorway      (DALTON; ABACUS magnetic properties and much more)
  Pawel Salek,                 KTH Stockholm,             Sweden      (DALTON; DFT code)
  Claire C. M. Samson,         University of Karlsruhe    Germany     (Boys localization, r12 integrals in ERI)
  Alfredo Sanchez de Meras,    University of Valencia,    Spain       (CC module, Cholesky decomposition)
  Trond Saue,                  Paul Sabatier University,  France      (direct Fock matrix construction)
  Stephan P. A. Sauer,         University of Copenhagen,  Denmark     (SOPPA(CCSD), SOPPA prop., AOSOPPA, vibrational g-factors)
  Bernd Schimmelpfennig,       Forschungszentrum KarlsruheGermany     (AMFI module)
  Anna K. Schnack-Petersen,    University of Copenhagen,  Denmark     (RPA(D) and HRPA(D) properties in AOSOPPA)
  Kristian Sneskov,            Aarhus University,         Denmark     (Polarizable embedding, QM/MM)
  Arnfinn H. Steindal,         UiT The Arctic U. of NorwayNorway      (parallel QM/MM, polarizable embedding)
  Casper Steinmann,            Aalborg University,        Denmark     (QFIT, polarizable embedding)
  K. O. Sylvester-Hvid,        University of Copenhagen,  Denmark     (MC-SCRF)
  Peter R. Taylor,             VLSCI/Univ. of Melbourne,  Australia   (Symmetry handling ABACUS, integral transformation)
  Andrew M. Teale,             University of Nottingham,  England     (DFT-AC, DFT-D)
  David P. Tew,                University of Bristol,     England     (CCSD(R12))
  Julien Toulouse,             Sorbonne Univ.,            France      (MC-srDFT)
  Olav Vahtras,                KTH Stockholm,             Sweden      (Triplet response, spin-orbit, ESR, TDDFT, open-shell DFT)
  Lucas Visscher,              Vrije Universiteit AmsterdaNetherlands (Frozen density embedding)
  David J. Wilson,             La Trobe University,       Australia   (DFT Hessian and DFT magnetizabilities)
  Luna Zamok,                  University of Copenhagen,  Denmark     (Block Lanczos RPA solver in SOPPA module)
  Hans Agren,                  KTH Stockholm,             Sweden      (SIRIUS module, RESPONS, MC-SCRF solvation)
 --------------------------------------------------------------------------------

     Date and time (Linux)  : Mon May  4 21:42:43 2026
     Host name              : debian                                  

 * Work memory size             :    64000000 =  488.28 megabytes.

 * Directories for basis set searches:
   1) /home/vdwv/DIPLOM_ITMO/CALCULATIONS_AND_SOFTS/softwares/Dalton_Shenanigans/dalton/dalton/build
   2) /home/vdwv/DIPLOM_ITMO/CALCULATIONS_AND_SOFTS/softwares/Dalton_Shenanigans/dalton/dalton/build/basis


Compilation information
-----------------------

 Who compiled             | vdwv
 Host                     | debian
 System                   | Linux-6.12.73+deb13-amd64
 CMake generator          | Unix Makefiles
 Processor                | x86_64
 64-bit integers          | OFF
 MPI                      | OFF
 Fortran compiler         | /usr/bin/gfortran
 Fortran compiler version | GNU Fortran (Debian 14.2.0-19) 14.2.0
 C compiler               | /usr/bin/gcc
 C compiler version       | gcc (Debian 14.2.0-19) 14.2.0
 C++ compiler             | /usr/bin/g++
 C++ compiler version     | g++ (Debian 14.2.0-19) 14.2.0
 BLAS                     | /opt/intel/oneapi/mkl/2025.3/lib/intel64/libmkl_gf
                          | _lp64.so;/opt/intel/oneapi/mkl/2025.3/lib/intel64/
                          | libmkl_sequential.so;/opt/intel/oneapi/mkl/2025.3/
                          | lib/intel64/libmkl_core.so;/usr/lib/x86_64-linux-g
                          | nu/libpthread.a;/usr/lib/x86_64-linux-gnu/libm.so
 LAPACK                   | /opt/intel/oneapi/mkl/2025.3/lib/intel64/libmkl_la
                          | pack95_lp64.a;/opt/intel/oneapi/mkl/2025.3/lib/int
                          | el64/libmkl_gf_lp64.so
 Static linking           | OFF
 Last Git revision        | 1892235f9264b9be21ec2fefe6e0081d659ab244
 Git branch               | master
 Configuration time       | 2026-05-04 17:50:26.788788

 * Sequential calculation.


   Content of the .dal input file
 ----------------------------------

BASIS
cc-pVDZ
Phosgene CCl2O using the cc-pVDZ basis
Using automatic symmetry detection
AtomTypes=3 Angstrom
Charge=8.0 Atoms=1
O      0.000      0.000      1.648
Charge=6.0 Atoms=1
C      0.000      0.000      0.492
Charge=17.0 Atoms=2
Cl1    0.000      1.448     -0.475
Cl2    0.000     -1.448     -0.475

**DALTON INPUT
.RUN WAVE FUN
**WAVE FUN
.HF
**END OF


       *******************************************************************
       *********** Output from DALTON general input processing ***********
       *******************************************************************

 --------------------------------------------------------------------------------
   Overall default print level:    0
   Print level for DALTON.STAT:    1

    HERMIT 1- and 2-electron integral sections will be executed
    "Old" integral transformation used (limited to max 255 basis functions)
    Wave function sections will be executed (SIRIUS module)
 --------------------------------------------------------------------------------


   ****************************************************************************
   *************** Output of molecule and basis set information ***************
   ****************************************************************************


    The two title cards from your ".mol" input:
    --------------------------------------------------------------------------------
 1: Phosgene CCl2O using the cc-pVDZ basis
 2: Using automatic symmetry detection
    --------------------------------------------------------------------------------

  Coordinates are entered in Angstrom and converted to atomic units.
          - Conversion factor : 1 bohr = 0.52917721080 A

  Atomic type no.    1
  --------------------
  Nuclear charge:   8.00000
  Number of symmetry independent centers:    1
  Number of basis sets to read;    2
  Basis set file used for this atomic type with Z =   8 :
     "/home/vdwv/DIPLOM_ITMO/CALCULATIONS_AND_SOFTS/softwares/Dalton_Shenanigans/dalton/dalton/build/basis/cc-pVDZ"

  Atomic type no.    2
  --------------------
  Nuclear charge:   6.00000
  Number of symmetry independent centers:    1
  Number of basis sets to read;    2
  Basis set file used for this atomic type with Z =   6 :
     "/home/vdwv/DIPLOM_ITMO/CALCULATIONS_AND_SOFTS/softwares/Dalton_Shenanigans/dalton/dalton/build/basis/cc-pVDZ"

  Atomic type no.    3
  --------------------
  Nuclear charge:  17.00000
  Number of symmetry independent centers:    2
  Number of basis sets to read;    2
  Basis set file used for this atomic type with Z =  17 :
     "/home/vdwv/DIPLOM_ITMO/CALCULATIONS_AND_SOFTS/softwares/Dalton_Shenanigans/dalton/dalton/build/basis/cc-pVDZ"


                      SYMADD: Addition of symmetry requested
                      --------------------------------------

 Symmetry test threshold:  5.00E-06

@  The molecule has been centered at center of mass and rotated
@  so the principal axes of inertia are along coordinate axes.

 Symmetry class found: C(2v)          

 Symmetry Independent Centres             
 ----------------------------
Cl2   17 :      0.00000000     2.73632343     0.87915750  Isotope  1
O      8 :      0.00000000     0.00000000    -3.13273106  Isotope  1
C      6 :      0.00000000     0.00000000    -0.94820766  Isotope  1

 The following symmetry elements were found:   X  Y     


                         SYMGRP: Point group information
                         -------------------------------

@    Full point group is: C(2v)          
@    Represented as:      C2v

@  * The irrep name for each symmetry:    1: A1     2: B1     3: B2     4: A2 

   * The point group was generated by:

      Reflection in the yz-plane
      Reflection in the xz-plane

   * Group multiplication table

        |  E   C2z  Oxz  Oyz
   -----+--------------------
     E  |  E   C2z  Oxz  Oyz
    C2z | C2z   E   Oyz  Oxz
    Oxz | Oxz  Oyz   E   C2z
    Oyz | Oyz  Oxz  C2z   E 

   * Character table

        |  E   C2z  Oxz  Oyz
   -----+--------------------
    A1  |   1    1    1    1
    B1  |   1   -1    1   -1
    B2  |   1   -1   -1    1
    A2  |   1    1   -1   -1

   * Direct product table

        | A1   B1   B2   A2 
   -----+--------------------
    A1  | A1   B1   B2   A2 
    B1  | B1   A1   A2   B2 
    B2  | B2   A2   A1   B1 
    A2  | A2   B2   B1   A1 


                                 Isotopic Masses
                                 ---------------

                           O          15.994915
                           C          12.000000
                           Cl2 _1     34.968853
                           Cl2 _2     34.968853

                       Total mass:    97.932621 amu
                       Natural abundance:  56.643 %

 Center-of-mass coordinates (a.u.):    0.000000    0.000000    0.000000
 Center-of-mass coordinates (Angs):    0.000000    0.000000    0.000000


  Atoms and basis sets
  --------------------

  Number of atom types :    3
  Total number of atoms:    4

  Basis set used is "cc-pVDZ" from the basis set library.

  label    atoms   charge   prim   cont     basis
  ----------------------------------------------------------------------
  O           1    8.0000    26    14      [9s4p1d|3s2p1d]                                    
  C           1    6.0000    26    14      [9s4p1d|3s2p1d]                                    
  Cl          2   17.0000    41    18      [12s8p1d|4s3p1d]                                   
  ----------------------------------------------------------------------
  total:      4   48.0000   134    64
  ----------------------------------------------------------------------
  Spherical harmonic basis used.

  Threshold for neglecting AO integrals:  1.00D-12


  Cartesian Coordinates (bohr)
  ----------------------------

  Total number of coordinates:   12
  O       :     1  x   0.0000000000    2  y   0.0000000000    3  z  -3.1327310606
  C       :     4  x   0.0000000000    5  y   0.0000000000    6  z  -0.9482076601
  Cl2 / 1 :     7  x   0.0000000000    8  y   2.7363234290    9  z   0.8791575027
  Cl2 / 2 :    10  x   0.0000000000   11  y  -2.7363234290   12  z   0.8791575027


  Cartesian Coordinates (xyz format; angstrom)
  --------------------------------------------

    4

  O        0.0000000000            0.0000000000           -1.6577698848
  C        0.0000000000            0.0000000000           -0.5017698848
 Cl        0.0000000000            1.4480000000            0.4652301152
 Cl        0.0000000000           -1.4480000000            0.4652301152


  Symmetry Coordinates
  --------------------

  Number of coordinates in each symmetry:     4    3    4    1

  Symmetry  A1  ( 1)

    1   O     z    3
    2   C     z    6
    3   Cl2   y    [  8  -   11 ]/2
    4   Cl2   z    [  9  +   12 ]/2

  Symmetry  B1  ( 2)

    5   O     x    1
    6   C     x    4
    7   Cl2   x    [  7  +   10 ]/2

  Symmetry  B2  ( 3)

    8   O     y    2
    9   C     y    5
   10   Cl2   y    [  8  +   11 ]/2
   11   Cl2   z    [  9  -   12 ]/2

  Symmetry  A2  ( 4)

   12   Cl2   x    [  7  -   10 ]/2


   Interatomic separations (in Angstrom):
   --------------------------------------

            O           C           Cl2 _1      Cl2 _2
            ------      ------      ------      ------
 O     :    0.000000
 C     :    1.156000    0.000000
 Cl2 _1:    2.569792    1.741204    0.000000
 Cl2 _2:    2.569792    1.741204    2.896000    0.000000


  Max    interatomic separation is    2.8960 Angstrom (    5.4726 Bohr)
  between atoms    4 and    3, "Cl2 _2" and "Cl2 _1".

  Min YX interatomic separation is    1.1560 Angstrom (    2.1845 Bohr)


  Bond distances (Angstrom):
  --------------------------

                  atom 1     atom 2       distance
                  ------     ------       --------
  bond distance:  C          O            1.156000
  bond distance:  Cl2 _1     C            1.741204
  bond distance:  Cl2 _2     C            1.741204


  Bond angles (degrees):
  ----------------------

                  atom 1     atom 2     atom 3         angle
                  ------     ------     ------         -----
  bond angle:     O          C          Cl2 _1       123.736
  bond angle:     O          C          Cl2 _2       123.736
  bond angle:     Cl2 _1     C          Cl2 _2       112.529




 Principal moments of inertia (u*A**2) and principal axes
 --------------------------------------------------------

   IA      62.115769          0.000000    1.000000    0.000000
   IB     146.638668          0.000000    0.000000    1.000000
   IC     208.754437          1.000000    0.000000    0.000000


 Rotational constants
 --------------------

@    The molecule is planar.

               A                   B                   C

           8136.0823           3446.4239           2420.9258 MHz
            0.271390            0.114960            0.080753 cm-1


@  Nuclear repulsion energy :  192.790218729995 Hartree


  Symmetry Orbitals
  -----------------

  Number of orbitals in each symmetry:          27   11   19    7


  Symmetry  A1 ( 1)

    1     O        1s         1
    2     O        1s         2
    3     O        1s         3
    4     O        2pz        6
    5     O        2pz        9
    6     O        3d0       12
    7     O        3d2+      14
    8     C        1s        15
    9     C        1s        16
   10     C        1s        17
   11     C        2pz       20
   12     C        2pz       23
   13     C        3d0       26
   14     C        3d2+      28
   15     Cl2      1s        29 +   30
   16     Cl2      1s        31 +   32
   17     Cl2      1s        33 +   34
   18     Cl2      1s        35 +   36
   19     Cl2      2py       39 -   40
   20     Cl2      2pz       41 +   42
   21     Cl2      2py       45 -   46
   22     Cl2      2pz       47 +   48
   23     Cl2      2py       51 -   52
   24     Cl2      2pz       53 +   54
   25     Cl2      3d1-      57 -   58
   26     Cl2      3d0       59 +   60
   27     Cl2      3d2+      63 +   64


  Symmetry  B1 ( 2)

   28     O        2px        4
   29     O        2px        7
   30     O        3d1+      13
   31     C        2px       18
   32     C        2px       21
   33     C        3d1+      27
   34     Cl2      2px       37 +   38
   35     Cl2      2px       43 +   44
   36     Cl2      2px       49 +   50
   37     Cl2      3d2-      55 -   56
   38     Cl2      3d1+      61 +   62


  Symmetry  B2 ( 3)

   39     O        2py        5
   40     O        2py        8
   41     O        3d1-      11
   42     C        2py       19
   43     C        2py       22
   44     C        3d1-      25
   45     Cl2      1s        29 -   30
   46     Cl2      1s        31 -   32
   47     Cl2      1s        33 -   34
   48     Cl2      1s        35 -   36
   49     Cl2      2py       39 +   40
   50     Cl2      2pz       41 -   42
   51     Cl2      2py       45 +   46
   52     Cl2      2pz       47 -   48
   53     Cl2      2py       51 +   52
   54     Cl2      2pz       53 -   54
   55     Cl2      3d1-      57 +   58
   56     Cl2      3d0       59 -   60
   57     Cl2      3d2+      63 -   64


  Symmetry  A2 ( 4)

   58     O        3d2-      10
   59     C        3d2-      24
   60     Cl2      2px       37 -   38
   61     Cl2      2px       43 -   44
   62     Cl2      2px       49 -   50
   63     Cl2      3d2-      55 +   56
   64     Cl2      3d1+      61 -   62

  Symmetries of electric field:  B1 (2)  B2 (3)  A1 (1)

  Symmetries of magnetic field:  B2 (3)  B1 (2)  A2 (4)


                     .---------------------------------------.
                     | Starting in Integral Section (HERMIT) |
                     `---------------------------------------'



 ***************************************************************************************
 ****************** Output from **INTEGRALS input processing (HERMIT) ******************
 ***************************************************************************************


 - Using defaults, no **INTEGRALS input found

 Default print level:        1

 Calculation of one- and two-electron Hamiltonian integrals.

 Center of mass  (bohr):      0.000000000000      0.000000000000      0.000000000000
 Operator center (bohr):      0.000000000000      0.000000000000      0.000000000000
 Gauge origin    (bohr):      0.000000000000      0.000000000000      0.000000000000
 Dipole origin   (bohr):      0.000000000000      0.000000000000      0.000000000000

Calculation of 2-electron integrals are postponed until they are needed.


     ************************************************************************
     ************************** Output from HERINT **************************
     ************************************************************************



                      Nuclear contribution to dipole moments
                      --------------------------------------

                 au               Debye          C m (/(10**-30)

      z     -0.85973935        -2.18523933        -7.28917378


  Total CPU  time used in HERMIT:   0.07 seconds
  Total wall time used in HERMIT:   0.07 seconds


                        .----------------------------------.
                        | End of Integral Section (HERMIT) |
                        `----------------------------------'



                   .--------------------------------------------.
                   | Starting in Wave Function Section (SIRIUS) |
                   `--------------------------------------------'


 *** Output from Huckel module :

     Using EWMO model:          F
     Using EHT  model:          T
     Number of Huckel orbitals each symmetry:   16    6   12    4

 Huckel EHT eigenvalues for symmetry :  1
         -104.886930     -20.710349     -11.381685     -10.619940      -8.074067
           -8.072366      -1.527654      -1.227458      -0.755107      -0.596807
           -0.505466      -0.310279      -0.189603      -0.056392      -0.051751
           -0.027775

 Huckel EHT eigenvalues for symmetry :  2
           -8.072502      -0.712454      -0.530845      -0.310971      -0.056349
           -0.048425

 Huckel EHT eigenvalues for symmetry :  3
         -104.887609     -10.620650      -8.073543      -8.072048      -1.143985
           -0.679269      -0.491036      -0.459479      -0.232411      -0.054687
           -0.050677      -0.045113

 Huckel EHT eigenvalues for symmetry :  4
           -8.072186      -0.490118      -0.055210      -0.053465

 **********************************************************************
 *SIRIUS* a direct, restricted step, second order MCSCF program       *
 **********************************************************************

 
     Date and time (Linux)  : Mon May  4 21:42:43 2026
     Host name              : debian                                  

 Title lines from ".mol" input file:
     Phosgene CCl2O using the cc-pVDZ basis
     Using automatic symmetry detection

 Print level on unit LUPRI =   2 is   0
 Print level on unit LUW4  =   2 is   5

@    Restricted, closed shell Hartree-Fock calculation.

 Initial molecular orbitals are obtained according to
 ".MOSTART EHT   " input option

     Wave function specification
     ============================
@    Wave function type        --- HF ---
@    Number of closed shell electrons          48
@    Number of electrons in active shells       0
@    Total charge of the molecule               0

@    Spin multiplicity and 2 M_S                1         0
@    Total number of symmetries                 4 (point group: C2v)
@    Reference state symmetry                   1 (irrep name : A1 )

     Orbital specifications
     ======================
@    Abelian symmetry species          All |    1    2    3    4
@                                          |  A1   B1   B2   A2 
                                       --- |  ---  ---  ---  ---
@    Total number of orbitals           64 |   27   11   19    7
@    Number of basis functions          64 |   27   11   19    7

      ** Automatic occupation of RHF orbitals **

      -- Initial occupation of symmetries is determined from extended Huckel guess.           
      -- Initial occupation of symmetries is :
@    Occupied SCF orbitals              24 |   11    3    8    2

     Maximum number of Fock   iterations      0
     Maximum number of DIIS   iterations     60
     Maximum number of QC-SCF iterations     60
     Threshold for SCF convergence     1.00D-05


 ***********************************************
 ***** DIIS acceleration of SCF iterations *****
 ***********************************************

 C1-DIIS algorithm; max error vectors =    8

 Automatic occupation of symmetries with  48 electrons.

 Iter     Total energy    Error norm  Delta(E)    SCF occupation
 -----------------------------------------------------------------------------

Calculating AOSUPINT

---> (Re)generating AOTWOINT


     ************************************************************************
     ************************** Output from HERINT **************************
     ************************************************************************


***  INFO  GETGAB: GABSO--- not found on AOGABINT. Regenerating.

 Threshold for neglecting two-electron integrals:  1.00D-12
 HERMIT - Number of two-electron integrals written:      534545 ( 24.7% )
 HERMIT - Megabytes written:                              6.180

  Total CPU  time used in TWOINT:   0.29 seconds
  Total wall time used in TWOINT:   0.29 seconds
  Time used in TWOINT     is       0.32 seconds
  CPU  time used in MAKE_AOTWOINT is   0.32 seconds
  WALL time used in MAKE_AOTWOINT is   0.32 seconds
     (Precalculated AO two-electron integrals are transformed to P-supermatrix elements.
      Threshold for discarding integrals :  1.00D-12 )

@  1  -1031.02207756       4.00D+00  -1.03D+03    11   3   8   2
      Virial theorem: -V/T =      1.999228
@    MULPOP   O      -0.66; C       0.72; Cl2 _1 -0.03; Cl2 _2 -0.03; 
   1  Level shift: doubly occupied orbital energies shifted by -2.00D-01
 -----------------------------------------------------------------------------
@  2  -1031.60745577       1.50D+00  -5.85D-01    11   3   8   2
      Virial theorem: -V/T =      2.000232
@    MULPOP   O       0.23; C      -0.55; Cl2 _1  0.16; Cl2 _2  0.16; 
   2  Level shift: doubly occupied orbital energies shifted by -1.00D-01
 -----------------------------------------------------------------------------
@  3  -1031.72269037       4.03D-01  -1.15D-01    11   3   8   2
      Virial theorem: -V/T =      1.999507
@    MULPOP   O      -0.26; C       0.30; Cl2 _1 -0.02; Cl2 _2 -0.02; 
   3  Level shift: doubly occupied orbital energies shifted by -5.00D-02
 -----------------------------------------------------------------------------
@  4  -1031.73284614       9.79D-02  -1.02D-02    11   3   8   2
      Virial theorem: -V/T =      1.999925
@    MULPOP   O      -0.18; C       0.24; Cl2 _1 -0.03; Cl2 _2 -0.03; 
   4  Level shift: doubly occupied orbital energies shifted by -1.25D-02
 -----------------------------------------------------------------------------
@  5  -1031.73400989       3.94D-02  -1.16D-03    11   3   8   2
      Virial theorem: -V/T =      1.999853
@    MULPOP   O      -0.19; C       0.24; Cl2 _1 -0.02; Cl2 _2 -0.02; 
 -----------------------------------------------------------------------------
@  6  -1031.73428556       1.47D-02  -2.76D-04    11   3   8   2
      Virial theorem: -V/T =      1.999846
@    MULPOP   O      -0.19; C       0.25; Cl2 _1 -0.03; Cl2 _2 -0.03; 
 -----------------------------------------------------------------------------
@  7  -1031.73433483       4.14D-03  -4.93D-05    11   3   8   2
      Virial theorem: -V/T =      1.999851
@    MULPOP   O      -0.19; C       0.25; Cl2 _1 -0.03; Cl2 _2 -0.03; 
 -----------------------------------------------------------------------------
@  8  -1031.73433868       1.48D-03  -3.85D-06    11   3   8   2
      Virial theorem: -V/T =      1.999845
@    MULPOP   O      -0.19; C       0.25; Cl2 _1 -0.03; Cl2 _2 -0.03; 
 -----------------------------------------------------------------------------
@  9  -1031.73433914       3.67D-04  -4.58D-07    11   3   8   2
      Virial theorem: -V/T =      1.999845
@    MULPOP   O      -0.19; C       0.25; Cl2 _1 -0.03; Cl2 _2 -0.03; 
 -----------------------------------------------------------------------------
@ 10  -1031.73433917       7.46D-05  -2.86D-08    11   3   8   2
      Virial theorem: -V/T =      1.999845
@    MULPOP   O      -0.19; C       0.25; Cl2 _1 -0.03; Cl2 _2 -0.03; 
 -----------------------------------------------------------------------------
@ 11  -1031.73433917       1.58D-05  -9.44D-10    11   3   8   2
      Virial theorem: -V/T =      1.999845
@    MULPOP   O      -0.19; C       0.25; Cl2 _1 -0.03; Cl2 _2 -0.03; 
 -----------------------------------------------------------------------------
@ 12  -1031.73433917       4.13D-06  -3.48D-11    11   3   8   2

@ *** DIIS converged in  12 iterations !
@     Converged SCF energy, gradient:  -1031.734339170326    4.13D-06
    - total time used in SIRFCK :              0.00 seconds


 *** SCF orbital energy analysis ***

 Only the 20 lowest virtual orbital energies printed in each symmetry.

 Number of electrons        :   48
 Closed shell orbitals      :   11    3    8    2

 Sym       Hartree-Fock orbital energies

1 A1   -104.87919760   -20.62959303   -11.47497052   -10.60733981    -8.07485775
         -8.07087260    -1.50721910    -1.20331942    -0.81095385    -0.70618755
         -0.52822909     0.12842494     0.37867167     0.62828112     0.67677861
          0.70564733     0.85465314     0.91850760     0.97917329     1.09592289
          1.27516123     1.33588759     1.89171153     2.04771730     2.45514654
          3.00124324     3.84875195

2 B1     -8.07111478    -0.65659446    -0.49753427     0.11564136     0.63629192
          0.72892339     0.91886752     1.04268612     1.27295821     1.58540667
          3.40920959

3 B2   -104.87919870   -10.60738555    -8.07486159    -8.07087519    -1.14080362
         -0.71471276    -0.49211921    -0.47315357     0.27718699     0.60184608
          0.68861859     0.76017615     0.92653795     0.99342397     1.14410550
          1.38982820     1.48288267     2.03804895     3.54425437

4 A2     -8.07111734    -0.49863174     0.74325321     0.81631701     0.94825305
          1.54931666     2.96896098

    E(LUMO) :     0.11564136 au (symmetry 2)
  - E(HOMO) :    -0.47315357 au (symmetry 3)
  ------------------------------------------
    gap     :     0.58879493 au

 --- Writing SIRIFC interface file

--------------------------------------------------------------------------------


     .--------------------------------------------------.
     | HF-SCF KT IPs [a.u. & eV] from Koopmans' theorem |
     `--------------------------------------------------'


     HF-SCF KT symmetry 1 ( A1 ) in point group C2v -- 11 principal poles with pole strength 1

   ============  ============  ============  ============  ============
     104.879198     20.629593     11.474971     10.607340      8.074858
    2853.908142    561.359782    312.249832    288.640399    219.728057
   ============  ============  ============  ============  ============

   ============  ============  ============  ============  ============
       8.070873      1.507219      1.203319      0.810954      0.706188
     219.619615     41.013518     32.743987     22.067177     19.216341
   ============  ============  ============  ============  ============

   ============
       0.528229
      14.373845
   ============

     HF-SCF KT symmetry 2 ( B1 ) in point group C2v -- 3 principal poles with pole strength 1

   ============  ============  ============
       8.071115      0.656594      0.497534
     219.626205     17.866844     13.538596
   ============  ============  ============

     HF-SCF KT symmetry 3 ( B2 ) in point group C2v -- 8 principal poles with pole strength 1

   ============  ============  ============  ============  ============
     104.879199     10.607386      8.074862      8.070875      1.140804
    2853.908171    288.641644    219.728161    219.619686     31.042846
   ============  ============  ============  ============  ============

   ============  ============  ============
       0.714713      0.492119      0.473154
      19.448324     13.391245     12.875164
   ============  ============  ============

     HF-SCF KT symmetry 4 ( A2 ) in point group C2v -- 2 principal poles with pole strength 1

   ============  ============
       8.071117      0.498632
     219.626275     13.568460
   ============  ============

@ Summary of HF-SCF KT ionization potentials [eV]:

@ Symmetry 1 (A1 ) :  2853.908     561.360     312.250     288.640     219.728
@                      219.620      41.014      32.744      22.067      19.216
@                       14.374

@ Symmetry 2 (B1 ) :   219.626      17.867      13.539

@ Symmetry 3 (B2 ) :  2853.908     288.642     219.728     219.620      31.043
@                       19.448      13.391      12.875

@ Symmetry 4 (A2 ) :   219.626      13.568

  === End of HF-SCF KT output ===
--------------------------------------------------------------------------------


 CPU and wall time for SCF :       0.364       0.364


                       .-----------------------------------.
                       | --- Final results from SIRIUS --- |
                       `-----------------------------------'


@    Spin multiplicity:           1
@    Spatial symmetry:            1 ( irrep  A1  in C2v )
@    Total charge of molecule:    0

@    Final HF energy:           -1031.734339170326                 
@    Nuclear repulsion:           192.790218729995
@    Electronic energy:         -1224.524557900321

@    Final gradient norm:           0.000004127933

 
     Date and time (Linux)  : Mon May  4 21:42:43 2026
     Host name              : debian                                  

File label for MO orbitals:   4May26   FOCKDIIS

 (Only coefficients > 0.0100 are printed.)

 Molecular orbitals for symmetry species 1  (A1 )
 ------------------------------------------------

    Orbital         2        3        4        5        6        7        8
   1 O   :1s     1.0008  -0.0003  -0.0001  -0.0000   0.0000  -0.0112   0.0027
   2 O   :1s     0.0039   0.0010  -0.0005  -0.0001   0.0000   0.7758  -0.2436
   3 O   :1s    -0.0056  -0.0018  -0.0001   0.0001  -0.0005  -0.0991   0.0106
   4 O   :2pz    0.0028   0.0010  -0.0002  -0.0000  -0.0001   0.2216  -0.0088
   5 O   :2pz   -0.0029  -0.0011  -0.0001   0.0001  -0.0000  -0.0705   0.0059
   6 O   :3d0    0.0003   0.0005  -0.0000   0.0000  -0.0000   0.0190  -0.0031
   8 C   :1s     0.0002   1.0008  -0.0008   0.0001   0.0000  -0.0100   0.0004
   9 C   :1s     0.0002   0.0052  -0.0019  -0.0006   0.0000   0.5031   0.2966
  10 C   :1s     0.0021  -0.0048   0.0069   0.0003   0.0002  -0.1989  -0.0721
  11 C   :2pz    0.0004   0.0001  -0.0003  -0.0004   0.0000  -0.2925   0.2677
  12 C   :2pz   -0.0023  -0.0023   0.0018   0.0001  -0.0007   0.1401  -0.0780
  13 C   :3d0   -0.0006   0.0007   0.0002   0.0000   0.0002   0.0383  -0.0084
  14 C   :3d2+  -0.0001  -0.0001   0.0003   0.0002   0.0001  -0.0020  -0.0202
  16 Cl2 :1s    -0.0000  -0.0001   0.7080   0.0032   0.0001   0.0007   0.0007
  17 Cl2 :1s    -0.0001  -0.0005   0.0023  -0.0015   0.0001   0.0818   0.5906
  18 Cl2 :1s     0.0003   0.0020  -0.0040   0.0011  -0.0000  -0.0209  -0.0427
  19 Cl2 :2py    0.0000  -0.0000  -0.0030   0.5994  -0.3752   0.0010   0.0035
  20 Cl2 :2pz    0.0000  -0.0000  -0.0020   0.3752   0.5993   0.0009   0.0019
  21 Cl2 :2py    0.0001  -0.0001  -0.0008   0.0004   0.0009  -0.0304  -0.1041
  22 Cl2 :2pz    0.0001  -0.0001  -0.0007   0.0003  -0.0015  -0.0296  -0.0434
  23 Cl2 :2py   -0.0003  -0.0007   0.0020  -0.0010  -0.0003   0.0149   0.0349
  24 Cl2 :2pz    0.0002  -0.0001   0.0015  -0.0006   0.0005   0.0088   0.0136
  25 Cl2 :3d1-  -0.0001  -0.0002  -0.0001  -0.0002  -0.0001   0.0104   0.0158
  27 Cl2 :3d2+  -0.0001   0.0001   0.0000   0.0001  -0.0001  -0.0043  -0.0152

    Orbital         9       10       11       12       13       14       15
   1 O   :1s     0.0017  -0.0016  -0.0049  -0.0005  -0.0719   0.0105  -0.0207
   2 O   :1s     0.3906  -0.2526   0.0074  -0.0728   0.1441   0.1087  -0.0722
   3 O   :1s     0.0674  -0.0899   0.0161  -0.0651   1.8173   0.1418   0.1673
   4 O   :2pz   -0.4395   0.6001   0.1650  -0.1408   0.1489  -0.0452   0.0124
   5 O   :2pz    0.0411  -0.0399  -0.0053  -0.0855   0.4996   0.1907   0.1651
   6 O   :3d0   -0.0156   0.0246   0.0061  -0.0068   0.0273   0.0107  -0.0122
   8 C   :1s    -0.0149   0.0052  -0.0012  -0.0134   0.0529   0.2846   0.2198
   9 C   :1s    -0.6549  -0.0185  -0.0213   0.5445   0.1311   1.2153   1.0254
  10 C   :1s     0.1558  -0.1399  -0.0276   1.1876  -1.2781  -1.4458  -2.4609
  11 C   :2pz   -0.0185  -0.5671  -0.1215   0.4614   0.1652   0.3027   0.4805
  12 C   :2pz   -0.0894   0.2061   0.0806   0.2851   2.0127  -0.2997  -0.9035
  13 C   :3d0   -0.0069   0.0041   0.0428   0.0075   0.0206  -0.0673   0.0748
  14 C   :3d2+   0.0123   0.0109   0.0241   0.0163  -0.0115  -0.2439   0.1307
  15 Cl2 :1s    -0.0020  -0.0011  -0.0006   0.0091   0.0113   0.0516   0.0233
  16 Cl2 :1s    -0.0113  -0.0048  -0.0042   0.0549   0.0793   0.3734   0.1781
  17 Cl2 :1s     0.2873   0.1681  -0.0106  -0.1213   0.1986   1.0656   0.6341
  18 Cl2 :1s     0.1080   0.0673   0.0121  -0.5324  -0.5430  -1.0065  -0.1001
  19 Cl2 :2py   -0.0028  -0.0029  -0.0000  -0.0046  -0.0035  -0.0619   0.0598
  20 Cl2 :2pz   -0.0018  -0.0015   0.0002  -0.0012  -0.0006  -0.0175   0.0833
  21 Cl2 :2py    0.2609   0.3411  -0.2630   0.3826   0.0017  -0.5794   0.6241
  22 Cl2 :2pz    0.1568   0.0615   0.6219   0.2242  -0.1439  -0.0849   0.8111
  23 Cl2 :2py   -0.0716  -0.0523  -0.0061   0.4860   0.3791   0.5489  -1.1171
  24 Cl2 :2pz   -0.0300  -0.0162  -0.0084   0.2337  -0.1418   0.1805  -1.1382
  25 Cl2 :3d1-  -0.0272  -0.0170  -0.0145   0.0620  -0.0492   0.2524   0.0272
  26 Cl2 :3d0    0.0021   0.0133  -0.0077  -0.0291  -0.1064   0.1484  -0.0492
  27 Cl2 :3d2+   0.0187   0.0246  -0.0022  -0.0534  -0.0705  -0.0562  -0.1169

    Orbital        16       17       18       19       20       21
   1 O   :1s     0.0086  -0.0068   0.0401   0.0311   0.0185   0.0049
   2 O   :1s     0.0564  -0.0741   0.0140   0.4400   0.1998   0.0521
   3 O   :1s     0.1180   0.9206  -1.2668   0.2021   0.2027   0.0789
   4 O   :2pz   -0.0848  -0.4785   0.5083   0.0393  -0.3970   0.3235
   5 O   :2pz    0.2376   0.3191  -1.1324   1.0147   0.8989  -0.5567
   6 O   :3d0    0.0211   0.0854  -0.0338  -0.0682  -0.0238   0.0130
   7 O   :3d2+   0.0017   0.0049   0.0178  -0.0035   0.0229  -0.0387
   8 C   :1s     0.1809   0.0426  -0.0665  -0.2414  -0.6834  -0.1479
   9 C   :1s     0.8478   0.4448  -0.4411  -1.1775  -2.9491  -0.9588
  10 C   :1s    -1.7114  -0.3580   2.1951  -0.1912   3.8842   0.4506
  11 C   :2pz    0.1666  -0.7683  -0.2722   1.2387  -0.0999  -0.6366
  12 C   :2pz   -0.5783   1.8140  -0.5162  -0.9839   1.0863   0.8360
  13 C   :3d0   -0.1374  -0.4466   0.2801   0.0205  -0.2013   0.1107
  14 C   :3d2+  -0.0416   0.0661   0.0546   0.0329   0.0908  -0.2406
  15 Cl2 :1s    -0.0048   0.0282   0.0679  -0.0296   0.0814  -0.0500
  16 Cl2 :1s    -0.0296   0.2003   0.4852  -0.2106   0.5765  -0.3613
  17 Cl2 :1s    -0.0314   0.5074   1.2808  -0.5406   1.4413  -0.9546
  18 Cl2 :1s     0.3748  -0.9334  -1.6348   0.8637  -2.3522   0.9928
  19 Cl2 :2py    0.0866   0.0174   0.0068   0.0053   0.0104   0.0542
  20 Cl2 :2pz   -0.0874   0.0257  -0.0455  -0.0063  -0.0025   0.0538
  21 Cl2 :2py    0.8656   0.1314   0.0611   0.0704   0.0467   0.3936
  22 Cl2 :2pz   -0.7893   0.2255  -0.4186  -0.0423  -0.0394   0.3790
  23 Cl2 :2py   -1.2138   0.1252   0.0734  -0.2699   0.4757  -0.4599
  24 Cl2 :2pz    0.8175  -0.2815   0.6783  -0.0126   0.2837  -0.6137
  25 Cl2 :3d1-   0.0465   0.1762   0.1449   0.2388   0.0248   0.5101
  26 Cl2 :3d0    0.1308  -0.0786  -0.4125  -0.1055   0.0953   0.1309
  27 Cl2 :3d2+  -0.0576   0.3794   0.0610   0.3400  -0.2522  -0.1556

 Molecular orbitals for symmetry species 2  (B1 )
 ------------------------------------------------

    Orbital         1        2        3        4        5        6        7
   1 O   :2px   -0.0000   0.5819  -0.4667  -0.5319  -0.0403   0.0051   0.1911
   2 O   :2px    0.0002  -0.0207  -0.0243  -0.2646  -0.0547  -0.0329  -0.0133
   3 O   :3d1+   0.0000   0.0292  -0.0151   0.0088  -0.0398  -0.0145   0.0038
   4 C   :2px    0.0001   0.5426  -0.1369   0.7407  -1.3962  -0.5439   0.0214
   5 C   :2px   -0.0005  -0.0685   0.0218   0.3819   1.7049   0.9560  -0.2144
   6 C   :3d1+   0.0001  -0.0320   0.0590   0.0551   0.0063   0.0964   0.1980
   7 Cl2 :2px    0.7071  -0.0007   0.0001  -0.0012  -0.0479   0.1227  -0.0027
   8 Cl2 :2px   -0.0015   0.2973   0.5936  -0.2330  -0.5010   1.1208  -0.0276
   9 Cl2 :2px    0.0004  -0.0318   0.0152  -0.1444   0.3251  -1.4519   0.0566
  10 Cl2 :3d2-  -0.0002  -0.0215  -0.0112  -0.0743  -0.0451  -0.1363  -0.5023
  11 Cl2 :3d1+  -0.0001  -0.0144  -0.0021  -0.0442  -0.0181  -0.1479   0.4604

    Orbital         8        9       10       11
   1 O   :2px   -0.4587   1.1598   0.7331   0.0050
   2 O   :2px    0.1615  -1.9885  -0.4803   0.4357
   3 O   :3d1+   0.0061   0.0499  -0.0818   1.1210
   4 C   :2px   -0.1611  -0.1807  -0.0486  -0.3953
   5 C   :2px    0.8241   0.9714   0.3277  -0.0272
   6 C   :3d1+  -0.2038  -0.5011   0.9318   0.6314
   7 Cl2 :2px    0.0451   0.0157   0.0089  -0.0031
   8 Cl2 :2px    0.3771   0.1312   0.0120  -0.0345
   9 Cl2 :2px   -0.6158  -0.3048  -0.2046   0.0434
  10 Cl2 :3d2-   0.3767   0.0363   0.3597   0.0510
  11 Cl2 :3d1+   0.5154   0.0679   0.1147  -0.0014

 Molecular orbitals for symmetry species 3  (B2 )
 ------------------------------------------------

    Orbital         1        2        3        4        5        6        7
   1 O   :2py    0.0000   0.0000  -0.0000   0.0000   0.0682   0.5538   0.6075
   2 O   :2py   -0.0001  -0.0016   0.0001  -0.0001  -0.0095  -0.0315   0.0285
   3 O   :3d1-  -0.0000  -0.0003  -0.0000  -0.0000   0.0071   0.0227   0.0090
   4 C   :2py   -0.0000  -0.0003  -0.0006   0.0002   0.2499   0.5228  -0.2128
   5 C   :2py    0.0004   0.0063   0.0000  -0.0005  -0.0925  -0.1251   0.0871
   6 C   :3d1-  -0.0000  -0.0007  -0.0003  -0.0001   0.0262  -0.0202  -0.0898
   7 Cl2 :1s     0.7071   0.0003  -0.0000   0.0000  -0.0002   0.0008  -0.0005
   8 Cl2 :1s     0.0001   0.7090   0.0032  -0.0000  -0.0031   0.0028  -0.0023
   9 Cl2 :1s     0.0002   0.0046  -0.0014   0.0001   0.6643  -0.1997   0.0105
  10 Cl2 :1s    -0.0005  -0.0081   0.0011   0.0000  -0.0069  -0.0637   0.0136
  11 Cl2 :2py   -0.0000  -0.0031   0.5994   0.3752   0.0022   0.0021  -0.0014
  12 Cl2 :2pz   -0.0000  -0.0020   0.3753  -0.5993   0.0016   0.0017  -0.0006
  13 Cl2 :2py   -0.0000  -0.0015   0.0004  -0.0010  -0.0468  -0.2274   0.5412
  14 Cl2 :2pz   -0.0000  -0.0007   0.0002   0.0015  -0.0486  -0.2943   0.0949
  15 Cl2 :2py    0.0002   0.0034  -0.0009   0.0004   0.0075   0.0351  -0.0002
  16 Cl2 :2pz    0.0001   0.0025  -0.0006  -0.0006   0.0114   0.0440  -0.0168
  17 Cl2 :3d1-  -0.0000  -0.0001  -0.0002   0.0001   0.0134   0.0324  -0.0253
  19 Cl2 :3d2+   0.0000   0.0001   0.0002   0.0001  -0.0073  -0.0178   0.0166

    Orbital         8        9       10       11       12       13       14
   1 O   :2py   -0.3757  -0.3210  -0.1647  -0.2394   0.2471  -0.1612  -0.2649
   2 O   :2py   -0.0235  -0.3159  -0.2958  -0.1068  -0.1588   0.1862   0.3013
   3 O   :3d1-  -0.0108   0.0162  -0.0209   0.0010  -0.0182  -0.0139  -0.0301
   4 C   :2py   -0.0217   0.9341  -0.9910   0.0200  -0.1527  -0.2548  -0.7128
   5 C   :2py    0.0077   0.8870   2.7306   0.2695   0.4320   0.5617   1.4411
   6 C   :3d1-   0.0164   0.0090   0.0331  -0.2467   0.0284   0.0691   0.2590
   7 Cl2 :1s     0.0003   0.0105  -0.0141  -0.0007   0.0156   0.0538   0.0797
   8 Cl2 :1s     0.0015   0.0622  -0.1144  -0.0011   0.1109   0.3844   0.5663
   9 Cl2 :1s    -0.0040  -0.1203  -0.4978   0.0571   0.2933   1.0107   1.4451
  10 Cl2 :1s    -0.0094  -0.7206  -0.4765  -0.0396  -0.4669  -1.3552  -2.1727
  11 Cl2 :2py    0.0014  -0.0105  -0.0277   0.1092   0.0316  -0.0068   0.0020
  12 Cl2 :2pz   -0.0015  -0.0128  -0.0089   0.0301  -0.1311  -0.0037   0.0271
  13 Cl2 :2py    0.3217   0.1465  -0.3965   0.9511   0.2573  -0.0587   0.0105
  14 Cl2 :2pz   -0.6044   0.1022  -0.1175   0.3064  -1.2104  -0.0314   0.2324
  15 Cl2 :2py    0.0064   0.5427   0.8013  -1.2690  -0.2688   0.2044   0.3036
  16 Cl2 :2pz   -0.0036   0.5656   0.6799  -0.2936   1.5213   0.1671   0.0286
  17 Cl2 :3d1-   0.0032   0.1151  -0.1540   0.0181   0.1172  -0.1302   0.4407
  18 Cl2 :3d0    0.0048   0.0353   0.0905   0.1973   0.0724   0.4810  -0.1286
  19 Cl2 :3d2+   0.0023  -0.0534   0.1780   0.2115   0.0927  -0.4008   0.0669

    Orbital        15       16       17       18
   1 O   :2py   -0.4597   1.0648  -0.1403  -0.7756
   2 O   :2py    0.3660  -1.9563   0.9946   1.0173
   3 O   :3d1-  -0.0016   0.0328  -0.0934   0.1300
   4 C   :2py   -0.3158  -0.7691  -0.2314  -0.3225
   5 C   :2py    1.2926   1.9884  -2.5093  -2.0536
   6 C   :3d1-   0.1369  -0.3162   0.2835  -1.1694
   7 Cl2 :1s     0.0023  -0.0049  -0.1532  -0.0694
   8 Cl2 :1s     0.0097  -0.0373  -1.0885  -0.4710
   9 Cl2 :1s    -0.0535  -0.1091  -2.6786  -0.9270
  10 Cl2 :1s    -0.4432  -0.4115   4.3202   2.4015
  11 Cl2 :2py    0.0853   0.0357   0.0534  -0.0565
  12 Cl2 :2pz   -0.0243   0.0243   0.0265  -0.0393
  13 Cl2 :2py    0.6914   0.1956   0.3888  -0.5215
  14 Cl2 :2pz   -0.1858   0.1544   0.1594  -0.3419
  15 Cl2 :2py   -0.6665  -0.1988  -1.2127  -0.3352
  16 Cl2 :2pz    0.5972   0.0609  -0.9797  -0.3905
  17 Cl2 :3d1-  -0.2684   0.1963   0.3729   0.4485
  18 Cl2 :3d0   -0.4114  -0.1091   0.2218  -0.0504
  19 Cl2 :3d2+  -0.3254  -0.3331  -0.1728  -0.3162

 Molecular orbitals for symmetry species 4  (A2 )
 ------------------------------------------------

    Orbital         1        2        3        4        5        6        7
   1 O   :3d2-  -0.0000   0.0002   0.0025   0.0184   0.0019   0.1090   1.0033
   2 C   :3d2-   0.0001   0.0351  -0.2017   0.3537   0.0083   0.9682  -0.2586
   3 Cl2 :2px    0.7071   0.0003  -0.1216  -0.0672  -0.0249   0.0104   0.0013
   4 Cl2 :2px   -0.0015   0.7030  -1.0943  -0.6645  -0.2265   0.0105   0.0277
   5 Cl2 :2px    0.0004   0.0110   1.3380   0.6973   0.2692  -0.1952   0.0082
   6 Cl2 :3d2-  -0.0002  -0.0131   0.2625  -0.3089  -0.4946   0.3414  -0.0528
   7 Cl2 :3d1+  -0.0001  -0.0097   0.1335  -0.3977   0.4938   0.3117  -0.0461

  Total CPU  time used in SIRIUS :   0.37 seconds
  Total wall time used in SIRIUS :   0.37 seconds

 
     Date and time (Linux)  : Mon May  4 21:42:43 2026
     Host name              : debian                                  


                     .---------------------------------------.
                     | End of Wave Function Section (SIRIUS) |
                     `---------------------------------------'

  Total CPU  time used in DALTON:   0.46 seconds
  Total wall time used in DALTON:   0.46 seconds

 
     Date and time (Linux)  : Mon May  4 21:42:43 2026
     Host name              : debian                                  
