
    -----------------------------------------------------------------------
          Psi4: An Open-Source Ab Initio Electronic Structure Package
                               Psi4 1.10 release

                         Git: Rev {} zzzzzzz 


    D. G. A. Smith, L. A. Burns, A. C. Simmonett, R. M. Parrish,
    M. C. Schieber, R. Galvelis, P. Kraus, H. Kruse, R. Di Remigio,
    A. Alenaizan, A. M. James, S. Lehtola, J. P. Misiewicz, M. Scheurer,
    R. A. Shaw, J. B. Schriber, Y. Xie, Z. L. Glick, D. A. Sirianni,
    J. S. O'Brien, J. M. Waldrop, A. Kumar, E. G. Hohenstein,
    B. P. Pritchard, B. R. Brooks, H. F. Schaefer III, A. Yu. Sokolov,
    K. Patkowski, A. E. DePrince III, U. Bozkaya, R. A. King,
    F. A. Evangelista, J. M. Turney, T. D. Crawford, C. D. Sherrill,
    J. Chem. Phys. 152(18) 184108 (2020). https://doi.org/10.1063/5.0006002

                            Additional Code Authors
    E. T. Seidl, C. L. Janssen, E. F. Valeev, M. L. Leininger,
    J. F. Gonthier, R. M. Richard, H. R. McAlexander, M. Saitow, X. Wang,
    P. Verma, M. H. Lechner, A. Jiang, S. Behnle, A. G. Heide,
    M. F. Herbst, D. L. Poole, T. Győri, E. C. Mitchell, J. P. Pederson,
    and A. M. Wallace

             Previous Authors, Complete List of Code Contributors,
                       and Citations for Specific Modules
    https://github.com/psi4/psi4/blob/master/codemeta.json
    https://github.com/psi4/psi4/graphs/contributors
    https://psicode.org/psi4manual/master/introduction.html#citing-psifour

    -----------------------------------------------------------------------


    Psi4 started on: Tuesday, 05 May 2026 09:18AM

    Process ID: 8473
    Host:       debian
    PSIDATADIR: /home/vdwv/DIPLOM_ITMO/CALCULATIONS_AND_SOFTS/softwares/Psi4_Shenanigans/psi4conda/share/psi4
    Memory:     500.0 MiB
    Threads:    1
    Addons:     adcc, a̶m̶b̶i̶t̶, b̶s̶e̶, c̶c̶t̶3̶, c̶f̶o̶u̶r̶, c̶h̶e̶m̶p̶s̶2̶, c̶p̶p̶e̶, ddx, dftd3, dftd4,
                dkh, ecpint, einsums, f̶o̶r̶t̶e̶, g̶a̶u̶x̶c̶, gcp, g̶d̶m̶a̶, geometric,
                g̶p̶u̶_̶d̶f̶c̶c̶, i̶n̶t̶e̶g̶r̶a̶t̶o̶r̶x̶x̶, i̶p̶i̶, libefp, m̶d̶i̶, m̶p̶2̶d̶,
                m̶r̶c̶c̶, ooo, o̶p̶e̶n̶f̶e̶r̶m̶i̶o̶n̶p̶s̶i̶4̶, pcmsolver, p̶s̶i̶4̶f̶o̶c̶k̶c̶i̶,
                p̶s̶i̶x̶a̶s̶, r̶e̶s̶p̶, s̶i̶m̶i̶n̶t̶, s̶n̶s̶m̶p̶2̶, v̶2̶r̶d̶m̶_̶c̶a̶s̶s̶c̶f̶

  ==> Input File <==

--------------------------------------------------------------------------
#! Sample HF/STO-3G CH3COOH computation

memory 600 mb

molecule ch3cooh {
  C1   1.118 -0.893  0.000
  C2   0.000  0.162  0.000
  O3   0.138  1.370  0.000
  H4   2.085 -0.401  0.000
  H5   1.031 -1.522  0.881
  H6   1.031 -1.522 -0.881
  O7  -1.258  0.433  0.000
  H8  -1.893  0.327  0.000
  units angstrom
}


set basis STO-3G
energy('scf')

--------------------------------------------------------------------------

  Memory set to 572.205 MiB by Python driver.

Scratch directory: /tmp/
   => Libint2 <=

    Primary   basis highest AM E, G, H:  6, 6, 3
    Auxiliary basis highest AM E, G, H:  7, 7, 4
    Onebody   basis highest AM E, G, H:  -, -, -
    Solid Harmonics ordering:            Gaussian

*** tstart() called on debian
*** at Tue May  5 09:18:08 2026

   => Loading Basis Set <=

    Name: STO-3G
    Role: ORBITAL
    Keyword: BASIS
    atoms 1-2    entry C          line    61 file /home/vdwv/DIPLOM_ITMO/CALCULATIONS_AND_SOFTS/softwares/Psi4_Shenanigans/psi4conda/share/psi4/basis/sto-3g.gbs 
    atoms 3, 7   entry O          line    81 file /home/vdwv/DIPLOM_ITMO/CALCULATIONS_AND_SOFTS/softwares/Psi4_Shenanigans/psi4conda/share/psi4/basis/sto-3g.gbs 
    atoms 4-6, 8 entry H          line    19 file /home/vdwv/DIPLOM_ITMO/CALCULATIONS_AND_SOFTS/softwares/Psi4_Shenanigans/psi4conda/share/psi4/basis/sto-3g.gbs 


         ---------------------------------------------------------
                                   SCF
               by Justin Turney, Rob Parrish, Andy Simmonett
                          and Daniel G. A. Smith
                              RHF Reference
                        1 Threads,    572 MiB Core
         ---------------------------------------------------------

  ==> Geometry <==

    Molecular point group: cs
    Full point group: Cs

    Geometry (in Angstrom), charge = 0, multiplicity = 1:

       Center              X                  Y                   Z               Mass       
    ------------   -----------------  -----------------  -----------------  -----------------
         C            1.155098048216    -1.174974577733     0.000000000000    12.000000000000
         C            0.037098048216    -0.119974577733     0.000000000000    12.000000000000
         O            0.175098048216     1.088025422267     0.000000000000    15.994914619570
         H            2.122098048216    -0.682974577733     0.000000000000     1.007825032230
         H            1.068098048216    -1.803974577733     0.881000000000     1.007825032230
         H            1.068098048216    -1.803974577733    -0.881000000000     1.007825032230
         O           -1.220901951784     0.151025422267     0.000000000000    15.994914619570
         H           -1.855901951784     0.045025422267     0.000000000000     1.007825032230

  Running in cs symmetry.

  Rotational constants: A =      0.63774  B =      0.23933  C =      0.17983 [cm^-1]
  Rotational constants: A =  19118.98665  B =   7175.03410  C =   5391.27394 [MHz]
  Nuclear repulsion =  126.607051320147093

  Charge       = 0
  Multiplicity = 1
  Electrons    = 32
  Nalpha       = 16
  Nbeta        = 16

  ==> Algorithm <==

  SCF Algorithm Type is DF.
  DIIS enabled.
  MOM disabled.
  Fractional occupation disabled.
  Guess Type is SAD.
  Energy threshold   = 1.00e-06
  Density threshold  = 1.00e-06
  Integral threshold = 1.00e-12

  ==> Primary Basis <==

  Basis Set: STO-3G
    Blend: STO-3G
    Number of shells: 16
    Number of basis functions: 24
    Number of Cartesian functions: 24
    Spherical Harmonics?: true
    Max angular momentum: 1

   => Loading Basis Set <=

    Name: (STO-3G AUX)
    Role: JKFIT
    Keyword: DF_BASIS_SCF
    atoms 1-2    entry C          line   198 file /home/vdwv/DIPLOM_ITMO/CALCULATIONS_AND_SOFTS/softwares/Psi4_Shenanigans/psi4conda/share/psi4/basis/def2-universal-jkfit.gbs 
    atoms 3, 7   entry O          line   318 file /home/vdwv/DIPLOM_ITMO/CALCULATIONS_AND_SOFTS/softwares/Psi4_Shenanigans/psi4conda/share/psi4/basis/def2-universal-jkfit.gbs 
    atoms 4-6, 8 entry H          line    18 file /home/vdwv/DIPLOM_ITMO/CALCULATIONS_AND_SOFTS/softwares/Psi4_Shenanigans/psi4conda/share/psi4/basis/def2-universal-jkfit.gbs 

  ==> Integral Setup <==

  DFHelper Memory: AOs need 0.003 GiB; user supplied 0.419 GiB. 
  SCF_SUBTYPE=INCORE selected. In-core MEM_DF algorithm will be used.
  Using in-core AOs.

  ==> MemDFJK: Density-Fitted J/K Matrices <==

    J tasked:                   Yes
    K tasked:                   Yes
    wK tasked:                   No
    OpenMP threads:               1
    Memory [MiB]:               429
    Algorithm:                 Core
    Schwarz Cutoff:           1E-12
    Mask sparsity (%):       1.0417
    Fitting Condition:        1E-10

   => Auxiliary Basis Set <=

  Basis Set: (STO-3G AUX)
    Blend: DEF2-UNIVERSAL-JKFIT
    Number of shells: 124
    Number of basis functions: 376
    Number of Cartesian functions: 444
    Spherical Harmonics?: true
    Max angular momentum: 4

  Minimum eigenvalue in the overlap matrix is 1.5962316087E-01.
  Reciprocal condition number of the overlap matrix is 7.1625082855E-02.
    Using symmetric orthogonalization.

  ==> Pre-Iterations <==

  SCF Guess: Superposition of Atomic Densities via on-the-fly atomic UHF (no occupation information).

   -------------------------
    Irrep   Nso     Nmo    
   -------------------------
     A'        19      19 
     A"         5       5 
   -------------------------
    Total      24      24
   -------------------------

  ==> Iterations <==

                           Total Energy        Delta E     RMS |[F,P]|

   @DF-RHF iter SAD:  -218.98046203809702   -2.18980e+02   0.00000e+00 
   @DF-RHF iter   1:  -223.32665729350353   -4.34620e+00   5.74665e-02 DIIS/ADIIS
   @DF-RHF iter   2:  -223.91133580932524   -5.84679e-01   4.27640e-02 DIIS/ADIIS
   @DF-RHF iter   3:  -224.24899845639200   -3.37663e-01   1.18106e-02 DIIS/ADIIS
   @DF-RHF iter   4:  -224.28283042415501   -3.38320e-02   1.88315e-03 DIIS/ADIIS
   @DF-RHF iter   5:  -224.28400939665892   -1.17897e-03   5.01599e-04 DIIS/ADIIS
   @DF-RHF iter   6:  -224.28414279952349   -1.33403e-04   2.04724e-04 DIIS/ADIIS
   @DF-RHF iter   7:  -224.28416508021118   -2.22807e-05   3.49161e-05 DIIS
   @DF-RHF iter   8:  -224.28416586132556   -7.81114e-07   8.90896e-06 DIIS
   @DF-RHF iter   9:  -224.28416589410062   -3.27751e-08   2.12707e-06 DIIS
   @DF-RHF iter  10:  -224.28416589577324   -1.67262e-09   4.39386e-07 DIIS
  Energy and wave function converged.


  ==> Post-Iterations <==

    Orbital Energies [Eh]
    ---------------------

    Doubly Occupied:                                                      

       1Ap   -20.233923     2Ap   -20.183832     3Ap   -11.153257  
       4Ap   -11.093764     5Ap    -1.432214     6Ap    -1.251700  
       7Ap    -0.976852     8Ap    -0.840363     9Ap    -0.656599  
       1App   -0.593077    10Ap    -0.574616     2App   -0.511051  
      11Ap    -0.484885    12Ap    -0.415452     3App   -0.285033  
      13Ap    -0.233066  

    Virtual:                                                              

       4App    0.336087    14Ap     0.489541    15Ap     0.641488  
       5App    0.691258    16Ap     0.705622    17Ap     0.802051  
      18Ap     1.012676    19Ap     1.298061  

    Final Occupation by Irrep:
             Ap   App 
    DOCC [    13,    3 ]
    NA   [    13,    3 ]
    NB   [    13,    3 ]

  @DF-RHF Final Energy:  -224.28416589577324

   => Energetics <=

    Nuclear Repulsion Energy =            126.6070513201470931
    One-Electron Energy =                -559.9430609968725321
    Two-Electron Energy =                 209.0518437809521970
    Total Energy =                       -224.2841658957732420

Computation Completed


Properties will be evaluated at   0.000000,   0.000000,   0.000000 [a0]

Properties computed using the SCF density matrix


 Multipole Moments:

 ------------------------------------------------------------------------------------
     Multipole            Electronic (a.u.)      Nuclear  (a.u.)        Total (a.u.)
 ------------------------------------------------------------------------------------

 L = 1.  Multiply by 2.5417464519 to convert [e a0] to [Debye]
 Dipole X            :         -2.2540825            2.2471443           -0.0069382
 Dipole Y            :          2.7034083           -3.9744465           -1.2710382
 Dipole Z            :          0.0000000            0.0000000            0.0000000
 Magnitude           :                                                    1.2710571

 ------------------------------------------------------------------------------------

*** tstop() called on debian at Tue May  5 09:18:09 2026
Module time:
	user time   =       0.93 seconds =       0.02 minutes
	system time =       0.03 seconds =       0.00 minutes
	total time  =          1 seconds =       0.02 minutes
Total time:
	user time   =       0.93 seconds =       0.02 minutes
	system time =       0.03 seconds =       0.00 minutes
	total time  =          1 seconds =       0.02 minutes

    Psi4 stopped on: Tuesday, 05 May 2026 09:18AM
    Psi4 wall time for execution: 0:00:01.03

*** Psi4 exiting successfully. Buy a developer a beer!
