

     ************************************************************************
     *************** Dalton - An Electronic Structure Program ***************
     ************************************************************************

    This is output from DALTON release Dalton2025.0-dev (2025)
         ( Web site: http://daltonprogram.org )

   ----------------------------------------------------------------------------

    NOTE:
     
    Dalton is an experimental code for the evaluation of molecular
    properties using (MC)SCF, DFT, CI, and CC wave functions.
    The authors accept no responsibility for the performance of
    the code or for the correctness of the results.
     
    The code (in whole or part) is provided under a licence and
    is not to be reproduced for further distribution without
    the written permission of the authors or their representatives.
     
    See the home page "http://daltonprogram.org" for further information.
     
    If results obtained with this code are published,
    the appropriate citations would be both of:
     
       K. Aidas, C. Angeli, K. L. Bak, V. Bakken,
       R. Bast, L. Boman, O. Christiansen, R. Cimiraglia,
       S. Coriani, P. Dahle, E. K. Dalskov, U. Ekstroem,
       T. Enevoldsen, J. J. Eriksen, P. Ettenhuber, B. Fernandez,
       L. Ferrighi, H. Fliegl, L. Frediani, K. Hald, A. Halkier,
       C. Haettig, H. Heiberg, T. Helgaker, A. C. Hennum,
       H. Hettema, E. Hjertenaes, S. Hoest, I.-M. Hoeyvik,
       M. F. Iozzi, B. Jansik, H. J. Aa. Jensen, D. Jonsson,
       P. Joergensen, J. Kauczor, S. Kirpekar,
       T. Kjaergaard, W. Klopper, S. Knecht, R. Kobayashi, H. Koch,
       J. Kongsted, A. Krapp, K. Kristensen, A. Ligabue,
       O. B. Lutnaes, J. I. Melo, K. V. Mikkelsen, R. H. Myhre,
       C. Neiss, C. B. Nielsen, P. Norman, J. Olsen,
       J. M. H. Olsen, A. Osted, M. J. Packer, F. Pawlowski,
       T. B. Pedersen, P. F. Provasi, S. Reine, Z. Rinkevicius,
       T. A. Ruden, K. Ruud, V. Rybkin, P. Salek, C. C. M. Samson,
       A. Sanchez de Meras, T. Saue, S. P. A. Sauer,
       B. Schimmelpfennig, K. Sneskov, A. H. Steindal,
       K. O. Sylvester-Hvid, P. R. Taylor, A. M. Teale,
       E. I. Tellgren, D. P. Tew, A. J. Thorvaldsen, L. Thoegersen,
       O. Vahtras, M. A. Watson, D. J. D. Wilson, M. Ziolkowski
       and H. Agren,
       "The Dalton quantum chemistry program system",
       WIREs Comput. Mol. Sci. 2014, 4:269-284 (doi: 10.1002/wcms.1172)
     
    and
     
       Dalton, a molecular electronic structure program,
       Release Dalton2025.0-dev (2025), see http://daltonprogram.org
   ----------------------------------------------------------------------------

    Authors in alphabetical order (Major contribution(s) in parenthesis):

  Kestutis Aidas,              Vilnius University,        Lithuania   (QM/MM)
  Celestino Angeli,            University of Ferrara,     Italy       (NEVPT2)
  Juan J. Aucar,               Northeast National UniversiArgentina   (LRESC, Relativistic Effects on NMR Shieldings and EFG)
  Keld L. Bak,                 UNI-C,                     Denmark     (AOSOPPA, non-adiabatic coupling, magnetic properties)
  Vebjoern Bakken,             University of Oslo,        Norway      (DALTON; geometry optimizer, symmetry detection)
  Radovan Bast,                UiT The Arctic U. of NorwayNorway      (DALTON installation and execution frameworks)
  Pablo Baudin,                University of Valencia,    Spain       (Cholesky excitation energies)
  Linus Boman,                 NTNU,                      Norway      (Cholesky decomposition and subsystems)
  Bruno N. Cabral Tenorio,     Technical Univ. of Denmark,Denmark     (Lanczos-based CC methods)
  Ove Christiansen,            Aarhus University,         Denmark     (CC module)
  Renzo Cimiraglia,            University of Ferrara,     Italy       (NEVPT2)
  Sonia Coriani,               Technical Univ. of Denmark,Denmark     (CC and RESPONS modules)
  Janusz Cukras,               University of Warsaw,      Poland      (MChD in RESPONS)
  Paal Dahle,                  University of Oslo,        Norway      (Parallelization)
  Erik K. Dalskov,             UNI-C,                     Denmark     (SOPPA)
  Thomas Enevoldsen,           Univ. of Southern Denmark, Denmark     (SOPPA)
  Janus J. Eriksen,            Aarhus University,         Denmark     (Polarizable embedding, TDA)
  Rasmus Faber,                Technical Univ. of Denmark,Denmark     (Vib.avg. NMR w. SOPPA, parallel AO-SOPPA, CVS-CC and EOMCC)
  Tobias Fahleson,             KTH Stockholm,             Sweden      (Damped cubic response)
  Berta Fernandez,             U. of Santiago de CompostelSpain       (Doublet spin, ESR in RESPONS)
  Lara Ferrighi,               Aarhus University,         Denmark     (PCM Cubic response)
  Heike Fliegl,                University of Oslo,        Norway      (CCSD(R12))
  Luca Frediani,               UiT The Arctic U. of NorwayNorway      (PCM)
  Emmanuel Fromager,           Univ. Strasbourg,          France      (MC-srDFT)
  Bin Gao,                     UiT The Arctic U. of NorwayNorway      (Gen1Int library)
  Andre S. P. Gomes,           CNRS/Universite de Lille,  France      (Frozen density embedding)
  Christof Haettig,            Ruhr-University Bochum,    Germany     (CC module)
  Kasper Hald,                 Aarhus University,         Denmark     (CC module)
  Asger Halkier,               Aarhus University,         Denmark     (CC module)
  Frederik Beyer Hansen,       University of Copenhagen,  Denmark     (Parallel AO-SOPPA)
  Erik D. Hedegaard,           Univ. of Southern Denmark, Denmark     (Polarizable embedding, QM/MM, and MC-srDFT)
  Hanne Heiberg,               University of Oslo,        Norway      (Geometry analysis, selected one-electron integrals)
  Trygve Helgaker,             University of Oslo,        Norway      (DALTON; ABACUS, ERI, DFT modules, London, and much more)
  Alf Christian Hennum,        University of Oslo,        Norway      (Parity violation)
  Hinne Hettema,               University of Auckland,    New Zealand (Quadratic response in RESPONS; SIRIUS supersymmetry)
  Andreas E. Hillers-Bendtsen, University of Copenhagen,  Denmark     (MP3)
  Eirik Hjertenaes,            NTNU,                      Norway      (Cholesky decomposition)
  Nicolai Machholdt Hoeyer,    Aarhus University,         Denmark     (MP3)
  Pi A. B. Haase,              University of Copenhagen,  Denmark     (Triplet AO-SOPPA)
  Maria Francesca Iozzi,       University of Oslo,        Norway      (RPA)
  Christoph Jacob,             TU Braunschweig            Germany     (Frozen density embedding)
  Brano Jansik,                Technical Univ. of Ostrava Czech Rep.  (DFT cubic response)
  Hans Joergen Aa. Jensen,     Univ. of Southern Denmark, Denmark     (DALTON; SIRIUS, RESPONS, ABACUS, MC-srDFT, and much more)
  Dan Jonsson,                 UiT The Arctic U. of NorwayNorway      (Cubic response in RESPONS module)
  Poul Joergensen,             Aarhus University,         Denmark     (RESPONS, ABACUS, and CC modules)
  Maciej Kaminski,             University of Warsaw,      Poland      (CPPh in RESPONS)
  Joanna Kauczor,              Linkoeping University,     Sweden      (Complex polarization propagator (CPP) module)
  Sheela Kirpekar,             Univ. of Southern Denmark, Denmark     (Mass-velocity & Darwin integrals)
  Frederik Oersted Kjeldal,    Technical Univ. of Denmark,Denmark     (MP3)
  Erik Kjellgren,              Univ. of Southern Denmark, Denmark     (MC-srDFT)
  Wim Klopper,                 KIT Karlsruhe,             Germany     (R12 code in CC, SIRIUS, and ABACUS modules)
  Stefan Knecht,               ETH Zurich,                Switzerland (Parallel CI and MCSCF, MC-srDFT)
  Rika Kobayashi,              Australian National Univ., Australia   (DIIS in CC, London in MCSCF)
  Henrik Koch,                 NTNU,                      Norway      (CC module, Cholesky decomposition)
  Jacob Kongsted,              Univ. of Southern Denmark, Denmark     (Polarizable embedding, polarizable density embedding, QM/MM)
  Andrea Ligabue,              University of Modena,      Italy       (CTOCD, AOSOPPA)
  Nanna H. List,               Univ. of Southern Denmark, Denmark     (Polarizable embedding)
  Ola B. Lutnaes,              University of Oslo,        Norway      (DFT Hessian)
  Juan I. Melo,                University of Buenos Aires,Argentina   (LRESC, Relativistic Effects on NMR Shieldings)
  Kurt V. Mikkelsen,           University of Copenhagen,  Denmark     (MC-SCRF, QM/MM, and MP3)
  Rolf H. Myhre,               NTNU,                      Norway      (Subsystems and CC3)
  Christian Neiss,             Univ. Erlangen-Nuernberg,  Germany     (CCSD(R12))
  Christian B. Nielsen,        University of Copenhagen,  Denmark     (QM/MM)
  Patrick Norman,              KTH Stockholm,             Sweden      (Cubic response and complex frequency response in RESPONS)
  Jeppe Olsen,                 Aarhus University,         Denmark     (SIRIUS CI/density modules)
  Jogvan Magnus H. Olsen,      Aarhus University,         Denmark     (Polarizable embedding and polarizable density embedding)
  Anders Osted,                Copenhagen University,     Denmark     (QM/MM)
  Martin J. Packer,            University of Sheffield,   UK          (SOPPA)
  Filip Pawlowski,             Kazimierz Wielki UniversityPoland      (CC3)
  Morten N. Pedersen,          Univ. of Southern Denmark, Denmark     (Polarizable embedding)
  Thomas B. Pedersen,          University of Oslo,        Norway      (Cholesky decomposition)
  Patricio F. Provasi,         University of Northeastern,Argentina   (Analysis of coupling constants in localized orbitals)
  Peter Reinholdt,             Univ. of Southern Denmark, Denmark     (Polarizable embedding and polarizable density embedding)
  Zilvinas Rinkevicius,        KTH Stockholm,             Sweden      (open-shell DFT, ESR)
  Elias Rudberg,               KTH Stockholm,             Sweden      (DFT grid and basis info)
  Torgeir A. Ruden,            University of Oslo,        Norway      (Numerical derivatives in ABACUS)
  Kenneth Ruud,                UiT The Arctic U. of NorwayNorway      (DALTON; ABACUS magnetic properties and much more)
  Pawel Salek,                 KTH Stockholm,             Sweden      (DALTON; DFT code)
  Claire C. M. Samson,         University of Karlsruhe    Germany     (Boys localization, r12 integrals in ERI)
  Alfredo Sanchez de Meras,    University of Valencia,    Spain       (CC module, Cholesky decomposition)
  Trond Saue,                  Paul Sabatier University,  France      (direct Fock matrix construction)
  Stephan P. A. Sauer,         University of Copenhagen,  Denmark     (SOPPA(CCSD), SOPPA prop., AOSOPPA, vibrational g-factors)
  Bernd Schimmelpfennig,       Forschungszentrum KarlsruheGermany     (AMFI module)
  Anna K. Schnack-Petersen,    University of Copenhagen,  Denmark     (RPA(D) and HRPA(D) properties in AOSOPPA)
  Kristian Sneskov,            Aarhus University,         Denmark     (Polarizable embedding, QM/MM)
  Arnfinn H. Steindal,         UiT The Arctic U. of NorwayNorway      (parallel QM/MM, polarizable embedding)
  Casper Steinmann,            Aalborg University,        Denmark     (QFIT, polarizable embedding)
  K. O. Sylvester-Hvid,        University of Copenhagen,  Denmark     (MC-SCRF)
  Peter R. Taylor,             VLSCI/Univ. of Melbourne,  Australia   (Symmetry handling ABACUS, integral transformation)
  Andrew M. Teale,             University of Nottingham,  England     (DFT-AC, DFT-D)
  David P. Tew,                University of Bristol,     England     (CCSD(R12))
  Julien Toulouse,             Sorbonne Univ.,            France      (MC-srDFT)
  Olav Vahtras,                KTH Stockholm,             Sweden      (Triplet response, spin-orbit, ESR, TDDFT, open-shell DFT)
  Lucas Visscher,              Vrije Universiteit AmsterdaNetherlands (Frozen density embedding)
  David J. Wilson,             La Trobe University,       Australia   (DFT Hessian and DFT magnetizabilities)
  Luna Zamok,                  University of Copenhagen,  Denmark     (Block Lanczos RPA solver in SOPPA module)
  Hans Agren,                  KTH Stockholm,             Sweden      (SIRIUS module, RESPONS, MC-SCRF solvation)
 --------------------------------------------------------------------------------

     Date and time (Linux)  : Mon May  4 22:31:25 2026
     Host name              : debian                                  

 * Work memory size             :    64000000 =  488.28 megabytes.

 * Directories for basis set searches:
   1) /home/vdwv/DIPLOM_ITMO/CALCULATIONS_AND_SOFTS/softwares/Dalton_Shenanigans/dalton/dalton/build
   2) /home/vdwv/DIPLOM_ITMO/CALCULATIONS_AND_SOFTS/softwares/Dalton_Shenanigans/dalton/dalton/build/basis


Compilation information
-----------------------

 Who compiled             | vdwv
 Host                     | debian
 System                   | Linux-6.12.73+deb13-amd64
 CMake generator          | Unix Makefiles
 Processor                | x86_64
 64-bit integers          | OFF
 MPI                      | OFF
 Fortran compiler         | /usr/bin/gfortran
 Fortran compiler version | GNU Fortran (Debian 14.2.0-19) 14.2.0
 C compiler               | /usr/bin/gcc
 C compiler version       | gcc (Debian 14.2.0-19) 14.2.0
 C++ compiler             | /usr/bin/g++
 C++ compiler version     | g++ (Debian 14.2.0-19) 14.2.0
 BLAS                     | /opt/intel/oneapi/mkl/2025.3/lib/intel64/libmkl_gf
                          | _lp64.so;/opt/intel/oneapi/mkl/2025.3/lib/intel64/
                          | libmkl_sequential.so;/opt/intel/oneapi/mkl/2025.3/
                          | lib/intel64/libmkl_core.so;/usr/lib/x86_64-linux-g
                          | nu/libpthread.a;/usr/lib/x86_64-linux-gnu/libm.so
 LAPACK                   | /opt/intel/oneapi/mkl/2025.3/lib/intel64/libmkl_la
                          | pack95_lp64.a;/opt/intel/oneapi/mkl/2025.3/lib/int
                          | el64/libmkl_gf_lp64.so
 Static linking           | OFF
 Last Git revision        | 1892235f9264b9be21ec2fefe6e0081d659ab244
 Git branch               | master
 Configuration time       | 2026-05-04 17:50:26.788788

 * Sequential calculation.


   Content of the .dal input file
 ----------------------------------

BASIS
cc-pVDZ
Acetic acid CH3COOH using the cc-pVDZ basis
Using automatic symmetry detection
AtomTypes=3 Angstrom
Charge=6.0 Atoms=2
C1    1.025     -0.940      0.000
C2    0.000      0.155      0.000
Charge=8.0 Atoms=2
O3    0.229      1.318      0.000
O7   -1.242     -0.326      0.000
Charge=1.0 Atoms=4
H4    2.021     -0.507      0.000
H5    0.885     -1.586      0.880
H6    0.885     -1.586     -0.880
H8   -1.840      0.414      0.000

**DALTON INPUT
.RUN WAVE FUN
**WAVE FUN
.HF
**END OF


       *******************************************************************
       *********** Output from DALTON general input processing ***********
       *******************************************************************

 --------------------------------------------------------------------------------
   Overall default print level:    0
   Print level for DALTON.STAT:    1

    HERMIT 1- and 2-electron integral sections will be executed
    "Old" integral transformation used (limited to max 255 basis functions)
    Wave function sections will be executed (SIRIUS module)
 --------------------------------------------------------------------------------


   ****************************************************************************
   *************** Output of molecule and basis set information ***************
   ****************************************************************************


    The two title cards from your ".mol" input:
    --------------------------------------------------------------------------------
 1: Acetic acid CH3COOH using the cc-pVDZ basis
 2: Using automatic symmetry detection
    --------------------------------------------------------------------------------

  Coordinates are entered in Angstrom and converted to atomic units.
          - Conversion factor : 1 bohr = 0.52917721080 A

  Atomic type no.    1
  --------------------
  Nuclear charge:   6.00000
  Number of symmetry independent centers:    2
  Number of basis sets to read;    2
  Basis set file used for this atomic type with Z =   6 :
     "/home/vdwv/DIPLOM_ITMO/CALCULATIONS_AND_SOFTS/softwares/Dalton_Shenanigans/dalton/dalton/build/basis/cc-pVDZ"

  Atomic type no.    2
  --------------------
  Nuclear charge:   8.00000
  Number of symmetry independent centers:    2
  Number of basis sets to read;    2
  Basis set file used for this atomic type with Z =   8 :
     "/home/vdwv/DIPLOM_ITMO/CALCULATIONS_AND_SOFTS/softwares/Dalton_Shenanigans/dalton/dalton/build/basis/cc-pVDZ"

  Atomic type no.    3
  --------------------
  Nuclear charge:   1.00000
  Number of symmetry independent centers:    4
  Number of basis sets to read;    2
  Basis set file used for this atomic type with Z =   1 :
     "/home/vdwv/DIPLOM_ITMO/CALCULATIONS_AND_SOFTS/softwares/Dalton_Shenanigans/dalton/dalton/build/basis/cc-pVDZ"


                      SYMADD: Addition of symmetry requested
                      --------------------------------------

 Symmetry test threshold:  5.00E-06

@  The molecule has been centered at center of mass and rotated
@  so the principal axes of inertia are along coordinate axes.

 Symmetry class found: C(s)           

 Symmetry Independent Centres             
 ----------------------------
O7     8 :     -1.26704224    -2.03286680     0.00000000  Isotope  1
O3     8 :     -1.18459874     2.13511413     0.00000000  Isotope  1
C2     6 :     -0.07993669     0.18649833     0.00000000  Isotope  1
C1     6 :      2.73783692    -0.11976611     0.00000000  Isotope  1
H8     1 :     -3.03560167    -1.70923165     0.00000000  Isotope  1
H5     1 :      3.33309159    -1.21791329     1.66295899  Isotope  1
H4     1 :      3.63157857     1.72774970     0.00000000  Isotope  1

 The following symmetry element was found:   Z        


                         SYMGRP: Point group information
                         -------------------------------

@    Full point group is: C(s)           
@    Represented as:      Cs 

@  * The irrep name for each symmetry:    1: A'     2: A" 

   * The point group was generated by:

      Reflection in the xy-plane

   * Group multiplication table

        |  E   Oxy
   -----+----------
     E  |  E   Oxy
    Oxy | Oxy   E 

   * Character table

        |  E   Oxy
   -----+----------
    A'  |   1    1
    A"  |   1   -1

   * Direct product table

        | A'   A" 
   -----+----------
    A'  | A'   A" 
    A"  | A"   A' 


                                 Isotopic Masses
                                 ---------------

                           C1         12.000000
                           C2         12.000000
                           O3         15.994915
                           O7         15.994915
                           H4          1.007825
                           H5  _1      1.007825
                           H5  _2      1.007825
                           H8          1.007825

                       Total mass:    60.021130 amu
                       Natural abundance:  97.285 %

 Center-of-mass coordinates (a.u.):    0.000000    0.000000    0.000000
 Center-of-mass coordinates (Angs):    0.000000    0.000000    0.000000


  Atoms and basis sets
  --------------------

  Number of atom types :    3
  Total number of atoms:    8

  Basis set used is "cc-pVDZ" from the basis set library.

  label    atoms   charge   prim   cont     basis
  ----------------------------------------------------------------------
  C2          2    6.0000    26    14      [9s4p1d|3s2p1d]                                    
  O7          2    8.0000    26    14      [9s4p1d|3s2p1d]                                    
  H8          4    1.0000     7     5      [4s1p|2s1p]                                        
  ----------------------------------------------------------------------
  total:      8   32.0000   132    76
  ----------------------------------------------------------------------
  Spherical harmonic basis used.

  Threshold for neglecting AO integrals:  1.00D-12


  Cartesian Coordinates (bohr)
  ----------------------------

  Total number of coordinates:   24
  C1      :     1  x   2.7378369158    2  y  -0.1197661084    3  z   0.0000000000
  C2      :     4  x  -0.0799366883    5  y   0.1864983285    6  z   0.0000000000
  O3      :     7  x  -1.1845987431    8  y   2.1351141290    9  z   0.0000000000
  O7      :    10  x  -1.2670422442   11  y  -2.0328668000   12  z   0.0000000000
  H4      :    13  x   3.6315785727   14  y   1.7277497021   15  z   0.0000000000
  H5  / 1 :    16  x   3.3330915852   17  y  -1.2179132928   18  z   1.6629589900
  H5  / 2 :    19  x   3.3330915852   20  y  -1.2179132928   21  z  -1.6629589900
  H8      :    22  x  -3.0356016745   23  y  -1.7092316546   24  z   0.0000000000


  Cartesian Coordinates (xyz format; angstrom)
  --------------------------------------------

    8

  C        1.4488009027           -0.0633774952            0.0000000000
  C       -0.0423006737            0.0986906653            0.0000000000
  O       -0.6268626588            1.1298537395            0.0000000000
  O       -0.6704898807           -1.0757467831            0.0000000000
  H        1.9217486199            0.9142857683            0.0000000000
  H        1.7637961084           -0.6444919593            0.8800000000
  H        1.7637961084           -0.6444919593           -0.8800000000
  H       -1.6063712272           -0.9044864396            0.0000000000


  Symmetry Coordinates
  --------------------

  Number of coordinates in each symmetry:    15    9

  Symmetry  A'  ( 1)

    1   C1    x    1
    2   C1    y    2
    3   C2    x    4
    4   C2    y    5
    5   O3    x    7
    6   O3    y    8
    7   O7    x   10
    8   O7    y   11
    9   H4    x   13
   10   H4    y   14
   11   H5    x    [ 16  +   19 ]/2
   12   H5    y    [ 17  +   20 ]/2
   13   H5    z    [ 18  -   21 ]/2
   14   H8    x   22
   15   H8    y   23

  Symmetry  A"  ( 2)

   16   C1    z    3
   17   C2    z    6
   18   O3    z    9
   19   O7    z   12
   20   H4    z   15
   21   H5    x    [ 16  -   19 ]/2
   22   H5    y    [ 17  -   20 ]/2
   23   H5    z    [ 18  +   21 ]/2
   24   H8    z   24


   Interatomic separations (in Angstrom):
   --------------------------------------

            C1          C2          O3          O7          H4          H5  _1
            ------      ------      ------      ------      ------      ------
 C1    :    0.000000
 C2    :    1.499883    0.000000
 O3    :    2.394197    1.185331    0.000000
 O7    :    2.348677    1.331888    2.206032    0.000000
 H4    :    1.086050    2.126661    2.557712    3.268016    0.000000
 H5  _1:    1.100598    2.142127    3.104505    2.624143    1.796980    0.000000
 H5  _2:    1.100598    2.142127    3.104505    2.624143    1.796980    1.760000
 H8    :    3.168839    1.858139    2.257870    0.951422    3.969328    3.492853

            H5  _2      H8    
            ------      ------
 H5  _2:    0.000000
 H8    :    3.492853    0.000000


  Max    interatomic separation is    3.9693 Angstrom (    7.5009 Bohr)
  between atoms    8 and    5, "H8    " and "H4    ".

  Min HX interatomic separation is    0.9514 Angstrom (    1.7979 Bohr)

  Min YX interatomic separation is    1.1853 Angstrom (    2.2400 Bohr)


  Bond distances (Angstrom):
  --------------------------

                  atom 1     atom 2       distance
                  ------     ------       --------
  bond distance:  C2         C1           1.499883
  bond distance:  O3         C2           1.185331
  bond distance:  O7         C2           1.331888
  bond distance:  H4         C1           1.086050
  bond distance:  H5  _1     C1           1.100598
  bond distance:  H5  _2     C1           1.100598
  bond distance:  H8         O7           0.951422


  Bond angles (degrees):
  ----------------------

                  atom 1     atom 2     atom 3         angle
                  ------     ------     ------         -----
  bond angle:     C2         C1         H4           109.612
  bond angle:     C2         C1         H5  _1       109.973
  bond angle:     C2         C1         H5  _2       109.973
  bond angle:     H4         C1         H5  _1       110.528
  bond angle:     H4         C1         H5  _2       110.528
  bond angle:     H5  _1     C1         H5  _2       106.177
  bond angle:     C1         C2         O3           125.752
  bond angle:     C1         C2         O7           111.939
  bond angle:     O3         C2         O7           122.310
  bond angle:     C2         O7         H8           107.772




 Principal moments of inertia (u*A**2) and principal axes
 --------------------------------------------------------

   IA      43.158629          1.000000   -0.000000    0.000000
   IB      52.839889          0.000000    1.000000    0.000000
   IC      92.876679          0.000000    0.000000    1.000000


 Rotational constants
 --------------------

               A                   B                   C

          11709.8021           9564.3466           5441.3983 MHz
            0.390597            0.319032            0.181506 cm-1


@  Nuclear repulsion energy :  122.393617416634 Hartree


  Symmetry Orbitals
  -----------------

  Number of orbitals in each symmetry:          53   23


  Symmetry  A' ( 1)

    1     C1       1s         1
    2     C1       1s         2
    3     C1       1s         3
    4     C1       2px        4
    5     C1       2py        5
    6     C1       2px        7
    7     C1       2py        8
    8     C1       3d2-      10
    9     C1       3d0       12
   10     C1       3d2+      14
   11     C2       1s        15
   12     C2       1s        16
   13     C2       1s        17
   14     C2       2px       18
   15     C2       2py       19
   16     C2       2px       21
   17     C2       2py       22
   18     C2       3d2-      24
   19     C2       3d0       26
   20     C2       3d2+      28
   21     O3       1s        29
   22     O3       1s        30
   23     O3       1s        31
   24     O3       2px       32
   25     O3       2py       33
   26     O3       2px       35
   27     O3       2py       36
   28     O3       3d2-      38
   29     O3       3d0       40
   30     O3       3d2+      42
   31     O7       1s        43
   32     O7       1s        44
   33     O7       1s        45
   34     O7       2px       46
   35     O7       2py       47
   36     O7       2px       49
   37     O7       2py       50
   38     O7       3d2-      52
   39     O7       3d0       54
   40     O7       3d2+      56
   41     H4       1s        57
   42     H4       1s        58
   43     H4       2px       59
   44     H4       2py       60
   45     H5       1s        62 +   63
   46     H5       1s        64 +   65
   47     H5       2px       66 +   67
   48     H5       2py       68 +   69
   49     H5       2pz       70 -   71
   50     H8       1s        72
   51     H8       1s        73
   52     H8       2px       74
   53     H8       2py       75


  Symmetry  A" ( 2)

   54     C1       2pz        6
   55     C1       2pz        9
   56     C1       3d1-      11
   57     C1       3d1+      13
   58     C2       2pz       20
   59     C2       2pz       23
   60     C2       3d1-      25
   61     C2       3d1+      27
   62     O3       2pz       34
   63     O3       2pz       37
   64     O3       3d1-      39
   65     O3       3d1+      41
   66     O7       2pz       48
   67     O7       2pz       51
   68     O7       3d1-      53
   69     O7       3d1+      55
   70     H4       2pz       61
   71     H5       1s        62 -   63
   72     H5       1s        64 -   65
   73     H5       2px       66 -   67
   74     H5       2py       68 -   69
   75     H5       2pz       70 +   71
   76     H8       2pz       76

  Symmetries of electric field:  A' (1)  A' (1)  A" (2)

  Symmetries of magnetic field:  A" (2)  A" (2)  A' (1)


                     .---------------------------------------.
                     | Starting in Integral Section (HERMIT) |
                     `---------------------------------------'



 ***************************************************************************************
 ****************** Output from **INTEGRALS input processing (HERMIT) ******************
 ***************************************************************************************


 - Using defaults, no **INTEGRALS input found

 Default print level:        1

 Calculation of one- and two-electron Hamiltonian integrals.

 Center of mass  (bohr):      0.000000000000      0.000000000000      0.000000000000
 Operator center (bohr):      0.000000000000      0.000000000000      0.000000000000
 Gauge origin    (bohr):      0.000000000000      0.000000000000      0.000000000000
 Dipole origin   (bohr):      0.000000000000      0.000000000000      0.000000000000

Calculation of 2-electron integrals are postponed until they are needed.


     ************************************************************************
     ************************** Output from HERINT **************************
     ************************************************************************



                      Nuclear contribution to dipole moments
                      --------------------------------------

                 au               Debye          C m (/(10**-30)

      x      3.59643354         9.14122166        30.49183332
      y     -1.19893659        -3.04739264       -10.16500769


  Total CPU  time used in HERMIT:   0.08 seconds
  Total wall time used in HERMIT:   0.09 seconds


                        .----------------------------------.
                        | End of Integral Section (HERMIT) |
                        `----------------------------------'



                   .--------------------------------------------.
                   | Starting in Wave Function Section (SIRIUS) |
                   `--------------------------------------------'


 *** Output from Huckel module :

     Using EWMO model:          F
     Using EHT  model:          T
     Number of Huckel orbitals each symmetry:   19    5

 Huckel EHT eigenvalues for symmetry :  1
          -20.710721     -20.707189     -11.390926     -11.375195      -1.678526
           -1.407250      -1.234489      -0.784203      -0.721777      -0.693429
           -0.571817      -0.558122      -0.484429      -0.278838      -0.257259
           -0.218439      -0.210036      -0.191651      -0.177409

 Huckel EHT eigenvalues for symmetry :  2
           -0.766408      -0.595634      -0.578402      -0.308388      -0.201665

 **********************************************************************
 *SIRIUS* a direct, restricted step, second order MCSCF program       *
 **********************************************************************

 
     Date and time (Linux)  : Mon May  4 22:31:26 2026
     Host name              : debian                                  

 Title lines from ".mol" input file:
     Acetic acid CH3COOH using the cc-pVDZ basis
     Using automatic symmetry detection

 Print level on unit LUPRI =   2 is   0
 Print level on unit LUW4  =   2 is   5

@    Restricted, closed shell Hartree-Fock calculation.

 Initial molecular orbitals are obtained according to
 ".MOSTART EHT   " input option

     Wave function specification
     ============================
@    Wave function type        --- HF ---
@    Number of closed shell electrons          32
@    Number of electrons in active shells       0
@    Total charge of the molecule               0

@    Spin multiplicity and 2 M_S                1         0
@    Total number of symmetries                 2 (point group: Cs )
@    Reference state symmetry                   1 (irrep name : A' )

     Orbital specifications
     ======================
@    Abelian symmetry species          All |    1    2
@                                          |  A'   A" 
                                       --- |  ---  ---
@    Total number of orbitals           76 |   53   23
@    Number of basis functions          76 |   53   23

      ** Automatic occupation of RHF orbitals **

      -- Initial occupation of symmetries is determined from extended Huckel guess.           
      -- Initial occupation of symmetries is :
@    Occupied SCF orbitals              16 |   13    3

     Maximum number of Fock   iterations      0
     Maximum number of DIIS   iterations     60
     Maximum number of QC-SCF iterations     60
     Threshold for SCF convergence     1.00D-05


 ***********************************************
 ***** DIIS acceleration of SCF iterations *****
 ***********************************************

 C1-DIIS algorithm; max error vectors =    8

 Automatic occupation of symmetries with  32 electrons.

 Iter     Total energy    Error norm  Delta(E)    SCF occupation
 -----------------------------------------------------------------------------

Calculating AOSUPINT

---> (Re)generating AOTWOINT


     ************************************************************************
     ************************** Output from HERINT **************************
     ************************************************************************


***  INFO  GETGAB: GABSO--- not found on AOGABINT. Regenerating.

 Threshold for neglecting two-electron integrals:  1.00D-12
 HERMIT - Number of two-electron integrals written:     2188855 ( 51.1% )
 HERMIT - Megabytes written:                             25.132

 2-el. screening, shell pairs skipped           4
  Total CPU  time used in TWOINT:   0.80 seconds
  Total wall time used in TWOINT:   0.80 seconds
  Time used in TWOINT     is       0.82 seconds
  CPU  time used in MAKE_AOTWOINT is   0.82 seconds
  WALL time used in MAKE_AOTWOINT is   0.82 seconds
     (Precalculated AO two-electron integrals are transformed to P-supermatrix elements.
      Threshold for discarding integrals :  1.00D-12 )

@  1  -226.866697788       4.48D+00  -2.27D+02    13   3
      Virial theorem: -V/T =      1.996072
@    MULPOP   C1      0.37; C2      0.90; O3     -0.78; O7     -0.34; H4     -0.13; H5  _1 -0.09; H5  _2 -0.09; H8      0.16; 
   1  Level shift: doubly occupied orbital energies shifted by -2.00D-01
 -----------------------------------------------------------------------------
@  2  -227.708717345       1.53D+00  -8.42D-01    13   3
      Virial theorem: -V/T =      2.003059
@    MULPOP   C1     -0.14; C2     -0.32; O3      0.13; O7     -0.13; H4      0.09; H5  _1  0.10; H5  _2  0.10; H8      0.15; 
   2  Level shift: doubly occupied orbital energies shifted by -1.00D-01
 -----------------------------------------------------------------------------
@  3  -227.820557756       4.86D-01  -1.12D-01    13   3
      Virial theorem: -V/T =      1.999149
@    MULPOP   C1     -0.04; C2      0.36; O3     -0.41; O7     -0.24; H4      0.05; H5  _1  0.07; H5  _2  0.07; H8      0.15; 
   3  Level shift: doubly occupied orbital energies shifted by -5.00D-02
 -----------------------------------------------------------------------------
@  4  -227.832940442       1.09D-01  -1.24D-02    13   3
      Virial theorem: -V/T =      2.000841
@    MULPOP   C1     -0.03; C2      0.29; O3     -0.34; O7     -0.28; H4      0.06; H5  _1  0.07; H5  _2  0.07; H8      0.17; 
   4  Level shift: doubly occupied orbital energies shifted by -1.25D-02
 -----------------------------------------------------------------------------
@  5  -227.833932840       3.59D-02  -9.92D-04    13   3
      Virial theorem: -V/T =      2.000416
@    MULPOP   C1     -0.05; C2      0.29; O3     -0.36; O7     -0.27; H4      0.07; H5  _1  0.07; H5  _2  0.07; H8      0.17; 
 -----------------------------------------------------------------------------
@  6  -227.834055844       1.19D-02  -1.23D-04    13   3
      Virial theorem: -V/T =      2.000300
@    MULPOP   C1     -0.04; C2      0.30; O3     -0.36; O7     -0.28; H4      0.07; H5  _1  0.07; H5  _2  0.07; H8      0.17; 
 -----------------------------------------------------------------------------
@  7  -227.834068404       3.28D-03  -1.26D-05    13   3
      Virial theorem: -V/T =      2.000359
@    MULPOP   C1     -0.04; C2      0.30; O3     -0.36; O7     -0.28; H4      0.07; H5  _1  0.07; H5  _2  0.07; H8      0.17; 
 -----------------------------------------------------------------------------
@  8  -227.834069993       8.70D-04  -1.59D-06    13   3
      Virial theorem: -V/T =      2.000338
@    MULPOP   C1     -0.04; C2      0.30; O3     -0.36; O7     -0.28; H4      0.07; H5  _1  0.07; H5  _2  0.07; H8      0.17; 
 -----------------------------------------------------------------------------
@  9  -227.834070101       2.62D-04  -1.08D-07    13   3
      Virial theorem: -V/T =      2.000340
@    MULPOP   C1     -0.04; C2      0.30; O3     -0.36; O7     -0.28; H4      0.07; H5  _1  0.07; H5  _2  0.07; H8      0.17; 
 -----------------------------------------------------------------------------
@ 10  -227.834070114       7.98D-05  -1.30D-08    13   3
      Virial theorem: -V/T =      2.000340
@    MULPOP   C1     -0.04; C2      0.30; O3     -0.36; O7     -0.28; H4      0.07; H5  _1  0.07; H5  _2  0.07; H8      0.17; 
 -----------------------------------------------------------------------------
@ 11  -227.834070116       2.38D-05  -1.17D-09    13   3
      Virial theorem: -V/T =      2.000340
@    MULPOP   C1     -0.04; C2      0.30; O3     -0.36; O7     -0.28; H4      0.07; H5  _1  0.07; H5  _2  0.07; H8      0.17; 
 -----------------------------------------------------------------------------
@ 12  -227.834070116       6.98D-06  -8.75D-11    13   3

@ *** DIIS converged in  12 iterations !
@     Converged SCF energy, gradient:   -227.834070115747    6.98D-06
    - total time used in SIRFCK :              0.00 seconds


 *** SCF orbital energy analysis ***

 Only the 20 lowest virtual orbital energies printed in each symmetry.

 Number of electrons        :   32
 Closed shell orbitals      :   13    3

 Sym       Hartree-Fock orbital energies

1 A'    -20.60708023   -20.54498968   -11.38370477   -11.24961527    -1.47689200
         -1.36833033    -1.02353482    -0.82781945    -0.70309787    -0.68198119
         -0.58032400    -0.56932444    -0.44708124     0.18157977     0.20971825
          0.25555736     0.37679155     0.45967187     0.49622914     0.65195624
          0.72464520     0.73869199     0.81375469     0.85273276     0.89058162
          0.93443904     1.00383486     1.08528909     1.19368880     1.26515724
          1.33107924     1.42856233     1.55276668

2 A"     -0.65047542    -0.55389133    -0.47865898     0.18851155     0.27302053
          0.62683938     0.70960619     0.84522407     1.13859675     1.22654163
          1.36322950     1.40037517     1.55490062     1.65294166     1.71093985
          1.89919007     2.09740361     2.44711763     2.75353045     2.97838758
          3.23048766     3.31275786     3.56775152

    E(LUMO) :     0.18157977 au (symmetry 1)
  - E(HOMO) :    -0.44708124 au (symmetry 1)
  ------------------------------------------
    gap     :     0.62866102 au

 --- Writing SIRIFC interface file

--------------------------------------------------------------------------------


     .--------------------------------------------------.
     | HF-SCF KT IPs [a.u. & eV] from Koopmans' theorem |
     `--------------------------------------------------'


     HF-SCF KT symmetry 1 ( A' ) in point group Cs  -- 13 principal poles with pole strength 1

   ============  ============  ============  ============  ============
      20.607080     20.544990     11.383705     11.249615      1.476892
     560.747178    559.057608    309.766364    306.117603     40.188276
   ============  ============  ============  ============  ============

   ============  ============  ============  ============  ============
       1.368330      1.023535      0.827819      0.703098      0.681981
      37.234162     27.851799     22.526113     19.132266     18.557652
   ============  ============  ============  ============  ============

   ============  ============  ============
       0.580324      0.569324      0.447081
      15.791419     15.492106     12.165699
   ============  ============  ============

     HF-SCF KT symmetry 2 ( A" ) in point group Cs  -- 3 principal poles with pole strength 1

   ============  ============  ============
       0.650475      0.553891      0.478659
      17.700337     15.072150     13.024974
   ============  ============  ============

@ Summary of HF-SCF KT ionization potentials [eV]:

@ Symmetry 1 (A' ) :   560.747     559.058     309.766     306.118      40.188
@                       37.234      27.852      22.526      19.132      18.558
@                       15.791      15.492      12.166

@ Symmetry 2 (A" ) :    17.700      15.072      13.025

  === End of HF-SCF KT output ===
--------------------------------------------------------------------------------


 CPU and wall time for SCF :       1.013       1.015


                       .-----------------------------------.
                       | --- Final results from SIRIUS --- |
                       `-----------------------------------'


@    Spin multiplicity:           1
@    Spatial symmetry:            1 ( irrep  A'  in Cs  )
@    Total charge of molecule:    0

@    Final HF energy:            -227.834070115747                 
@    Nuclear repulsion:           122.393617416634
@    Electronic energy:          -350.227687532381

@    Final gradient norm:           0.000006980469

 
     Date and time (Linux)  : Mon May  4 22:31:27 2026
     Host name              : debian                                  

File label for MO orbitals:   4May26   FOCKDIIS

 (Only coefficients > 0.0100 are printed.)

 Molecular orbitals for symmetry species 1  (A' )
 ------------------------------------------------

    Orbital         4        5        6        7        8        9       10
   1 C1  :1s     1.0019   0.0010  -0.0020  -0.0198   0.0111  -0.0017   0.0070
   2 C1  :1s     0.0102   0.0728   0.0120   0.6842  -0.2840  -0.0102  -0.1166
   3 C1  :1s    -0.0127  -0.0563   0.0005  -0.2264   0.0408   0.0241  -0.0209
   4 C1  :2px   -0.0001  -0.0414  -0.0076  -0.0935  -0.1804   0.0296  -0.3313
   5 C1  :2py   -0.0002   0.0006   0.0180  -0.0009  -0.0371  -0.1180   0.1595
   6 C1  :2px    0.0010   0.0275  -0.0009   0.0559   0.0517  -0.0417   0.0729
   7 C1  :2py    0.0001   0.0017  -0.0060  -0.0038   0.0081  -0.0011  -0.0287
   9 C1  :3d0    0.0001  -0.0016  -0.0009  -0.0042  -0.0042   0.0022  -0.0140
  10 C1  :3d2+  -0.0002   0.0078   0.0008   0.0104   0.0134  -0.0006   0.0170
  11 C2  :1s    -0.0026  -0.0136  -0.0051  -0.0025   0.0056  -0.0100   0.0024
  12 C2  :1s    -0.0002   0.4648   0.1896   0.3206   0.4467  -0.3651   0.1628
  13 C2  :1s     0.0025  -0.1775  -0.0765  -0.0434  -0.1457   0.1466  -0.0205
  14 C2  :2px    0.0001  -0.1500  -0.0579   0.2790  -0.0963   0.1476   0.4101
  15 C2  :2py   -0.0000   0.0031   0.3451  -0.0977  -0.2628  -0.2657   0.2623
  16 C2  :2px    0.0013   0.0846   0.0267  -0.0385   0.0576  -0.1065  -0.0809
  17 C2  :2py    0.0002  -0.0005  -0.1444   0.0261   0.0818   0.1426  -0.1269
  18 C2  :3d2-   0.0001   0.0035  -0.0463  -0.0028   0.0106  -0.0012  -0.0084
  19 C2  :3d0    0.0002  -0.0213  -0.0058  -0.0109  -0.0100   0.0038   0.0040
  20 C2  :3d2+  -0.0002  -0.0181  -0.0061   0.0140  -0.0245  -0.0222  -0.0183
  21 O3  :1s    -0.0000  -0.0065  -0.0117   0.0013   0.0003  -0.0001  -0.0023
  22 O3  :1s    -0.0002   0.4424   0.6577  -0.1685  -0.1538   0.3847  -0.0940
  23 O3  :1s     0.0001  -0.0516  -0.0577  -0.0029  -0.0163   0.0844  -0.0051
  24 O3  :2px   -0.0001   0.0524   0.0908   0.0615   0.0013  -0.2350   0.4182
  25 O3  :2py    0.0000  -0.1268  -0.1269   0.0101  -0.1300   0.4950   0.0684
  26 O3  :2px   -0.0001  -0.0228  -0.0264  -0.0167  -0.0027   0.0169  -0.0152
  27 O3  :2py   -0.0001   0.0326   0.0414  -0.0072   0.0059  -0.0220  -0.0019
  28 O3  :3d2-   0.0000  -0.0070  -0.0107  -0.0021  -0.0007   0.0159  -0.0128
  30 O3  :3d2+  -0.0000  -0.0078  -0.0034   0.0036  -0.0072   0.0097   0.0108
  32 O7  :1s    -0.0003   0.6429  -0.5518  -0.1123  -0.1197   0.1907   0.1508
  33 O7  :1s     0.0003  -0.0683   0.0512   0.0029   0.0216   0.0742   0.0523
  34 O7  :2px   -0.0001  -0.0085   0.0228   0.1687   0.5001   0.3730   0.0299
  35 O7  :2py   -0.0001   0.1259  -0.0457   0.0380   0.3079  -0.2682  -0.4363
  36 O7  :2px    0.0004   0.0216  -0.0276  -0.0449  -0.0891  -0.0217  -0.0103
  37 O7  :2py    0.0001  -0.0284   0.0206   0.0025  -0.0158  -0.0042   0.0121
  38 O7  :3d2-   0.0000   0.0045  -0.0023   0.0070   0.0157   0.0099   0.0007
  40 O7  :3d2+   0.0000  -0.0052  -0.0027  -0.0021  -0.0174   0.0026   0.0126
  41 H4  :1s     0.0002   0.0161   0.0131   0.2471  -0.2206  -0.0764  -0.0688
  42 H4  :1s     0.0011  -0.0114  -0.0055  -0.1163   0.0840   0.0564   0.0240
  44 H4  :2py    0.0004  -0.0017  -0.0024  -0.0193   0.0135   0.0014   0.0069
  45 H5  :1s     0.0002   0.0155  -0.0025   0.2528  -0.1607   0.0589  -0.2276
  46 H5  :1s     0.0012  -0.0068   0.0004  -0.1174   0.0600  -0.0152   0.0800
  48 H5  :2py   -0.0002  -0.0002   0.0001   0.0111  -0.0075   0.0007  -0.0049
  49 H5  :2pz    0.0004  -0.0015   0.0007  -0.0169   0.0099  -0.0033   0.0113
  50 H8  :1s     0.0003   0.2117  -0.1984  -0.1700  -0.4583  -0.2947  -0.0310
  51 H8  :1s     0.0001  -0.1040   0.0974   0.0817   0.1798   0.1329   0.0236
  52 H8  :2px    0.0001   0.0289  -0.0250  -0.0168  -0.0365  -0.0213  -0.0056
  53 H8  :2py    0.0000  -0.0022   0.0042   0.0036   0.0142  -0.0049  -0.0140

    Orbital        11       12       13       14       15       16       17
   1 C1  :1s    -0.0015  -0.0016   0.0027   0.0673   0.0419   0.0115   0.0952
   2 C1  :1s    -0.0219  -0.0081  -0.0843  -0.1448  -0.0813  -0.0237   0.1110
   3 C1  :1s    -0.0351  -0.0138  -0.0633  -1.6646  -0.9988  -0.3332  -2.1971
   4 C1  :2px    0.2018   0.3462   0.3006  -0.0763  -0.1865  -0.1379   0.1513
   5 C1  :2py   -0.3689   0.4777  -0.1333   0.0418   0.1061  -0.4226  -0.0511
   6 C1  :2px   -0.0256  -0.0591  -0.0350  -0.2294  -0.4045  -0.2815   2.3381
   7 C1  :2py    0.0784  -0.0713   0.0036   0.0484   0.4367  -1.1818  -0.2298
   8 C1  :3d2-  -0.0149   0.0111   0.0024   0.0091  -0.0147  -0.0074  -0.0047
   9 C1  :3d0    0.0152  -0.0074   0.0072  -0.0049  -0.0013   0.0120   0.0034
  10 C1  :3d2+  -0.0106  -0.0196  -0.0067   0.0067   0.0093   0.0059   0.0202
  11 C2  :1s    -0.0003  -0.0016  -0.0020  -0.0045  -0.0111   0.0096  -0.0405
  12 C2  :1s    -0.0339  -0.1086  -0.0817   0.0263  -0.0587   0.0267   0.3432
  13 C2  :1s    -0.0153   0.0006  -0.0121   0.0204   0.2060  -0.1177   2.8691
  14 C2  :2px   -0.2591  -0.2767  -0.1942   0.0066   0.0388  -0.0141   0.4201
  15 C2  :2py    0.3156   0.0704  -0.0082  -0.0501   0.0706  -0.0455  -0.1287
  16 C2  :2px    0.1126   0.0756   0.0823   0.1356  -0.4660  -0.0621   1.5540
  17 C2  :2py   -0.1953  -0.0616   0.0375   0.1633  -0.2468   0.1218  -0.2565
  18 C2  :3d2-  -0.0453   0.0143   0.0486  -0.0081   0.0149  -0.0247  -0.0181
  19 C2  :3d0    0.0011  -0.0028  -0.0032   0.0154  -0.0079  -0.0106  -0.0201
  20 C2  :3d2+  -0.0199  -0.0227  -0.0670  -0.0055   0.0005   0.0001   0.0195
  22 O3  :1s    -0.1177  -0.0364   0.0168  -0.0617   0.0101   0.0193  -0.0223
  23 O3  :1s    -0.0248  -0.0043  -0.0067  -0.1262  -0.0737  -0.0438  -0.0040
  24 O3  :2px    0.1365   0.0142   0.7125   0.0254  -0.1331  -0.0004  -0.1074
  25 O3  :2py   -0.4458  -0.1590   0.3673   0.0202  -0.0152  -0.0733   0.0709
  26 O3  :2px   -0.0006   0.0063   0.0432  -0.0355   0.0074   0.0015  -0.2520
  27 O3  :2py    0.0177   0.0042   0.0245   0.0272   0.0495  -0.0133   0.0115
  28 O3  :3d2-  -0.0112  -0.0015  -0.0096   0.0049   0.0004   0.0023  -0.0025
  30 O3  :3d2+  -0.0112  -0.0080   0.0114   0.0028   0.0001  -0.0021   0.0034
  31 O7  :1s     0.0011  -0.0000  -0.0050   0.0135  -0.0086  -0.0082   0.0100
  32 O7  :1s     0.1354   0.1541   0.0306  -0.1588   0.1344  -0.0299  -0.0249
  33 O7  :1s     0.0561   0.0715   0.0592  -0.3776   0.2626   0.1376  -0.2192
  34 O7  :2px    0.2048   0.3214   0.0396   0.1567  -0.2592  -0.0984  -0.1079
  35 O7  :2py   -0.4118  -0.1344   0.3368  -0.0290   0.0358  -0.0277  -0.1108
  36 O7  :2px   -0.0248  -0.0219  -0.0148   0.1947  -0.2869  -0.0886  -0.2540
  37 O7  :2py   -0.0068  -0.0170   0.0178   0.0234  -0.1202  -0.0018  -0.0702
  38 O7  :3d2-   0.0027   0.0061  -0.0032   0.0048  -0.0118  -0.0026   0.0117
  41 H4  :1s    -0.2559   0.5969  -0.0219   0.0520  -0.0734   0.0976  -0.2034
  42 H4  :1s     0.0667  -0.1710   0.0522   0.6745   0.2172   2.2434   0.0051
  43 H4  :2px    0.0102  -0.0082   0.0005   0.0002  -0.0034  -0.0134   0.0053
  44 H4  :2py    0.0041  -0.0219   0.0002  -0.0078  -0.0065  -0.0232  -0.0066
  45 H5  :1s     0.2530  -0.1544   0.1326   0.0025   0.0525  -0.0400  -0.1656
  46 H5  :1s    -0.0587   0.0554  -0.0249   0.8241   0.8919  -0.7922  -0.1507
  49 H5  :2pz   -0.0116   0.0067  -0.0067  -0.0108  -0.0083   0.0091   0.0014
  50 H8  :1s    -0.2158  -0.2924  -0.0255   0.1055  -0.1027   0.0424  -0.0385
  51 H8  :1s     0.0845   0.0999  -0.0509   0.8948  -1.2263  -0.3174   0.0406
  52 H8  :2px   -0.0153  -0.0176   0.0009   0.0156  -0.0153  -0.0122  -0.0031
  53 H8  :2py   -0.0067   0.0019   0.0056  -0.0066   0.0100   0.0014  -0.0086

    Orbital        18       19       20       21       22       23
   1 C1  :1s    -0.0441  -0.0213   0.0347   0.0861   0.1180  -0.0041
   2 C1  :1s    -0.1670  -0.0659   0.1506   0.4297   0.7516  -0.1550
   3 C1  :1s     1.1357   0.5382  -1.1117  -1.1837  -0.0958  -0.8435
   4 C1  :2px    0.2628   0.2047  -0.0977  -0.5075  -0.9747   0.4299
   5 C1  :2py   -0.1152  -0.0494  -0.3437   0.2595   0.0454   0.2351
   6 C1  :2px   -0.5485  -0.4659   0.5803   1.0130   1.2041  -0.1165
   7 C1  :2py   -0.2616   0.7323   1.5420  -1.2299   0.2735  -0.8056
   8 C1  :3d2-  -0.0450   0.0617  -0.0367   0.0676  -0.0228  -0.1230
   9 C1  :3d0    0.0341  -0.0185   0.1668  -0.0099   0.0391   0.0143
  10 C1  :3d2+   0.0213  -0.0006   0.0037  -0.1357  -0.0193  -0.0365
  11 C2  :1s    -0.0865  -0.0831   0.0141   0.1481  -0.0981  -0.0418
  12 C2  :1s    -0.1778  -0.0914   0.1239   0.7258  -0.7080  -0.0633
  13 C2  :1s     1.6236   1.1688   0.1165  -0.0321   1.3438   0.5983
  14 C2  :2px   -0.1279  -0.3633  -0.5098  -0.8719   0.1045   0.0482
  15 C2  :2py    0.0950  -0.3357  -0.2546  -0.6038   0.4478   0.7095
  16 C2  :2px   -1.5609  -1.0969   1.5275   1.7200  -1.2448   0.9967
  17 C2  :2py    1.4073  -1.7770  -1.0501   1.7084  -1.0520  -1.1452
  18 C2  :3d2-  -0.0179  -0.0007   0.0190  -0.0768   0.0772   0.3218
  19 C2  :3d0    0.0264   0.0461   0.0455  -0.0338  -0.1816   0.0780
  20 C2  :3d2+  -0.0366  -0.0229   0.0667   0.2041   0.1194   0.0182
  21 O3  :1s     0.0753  -0.0126  -0.0348   0.0155   0.0161  -0.0194
  22 O3  :1s    -0.1576  -0.0257  -0.0292  -0.0188   0.0544  -0.1194
  23 O3  :1s    -1.9092   0.3125   0.9640  -0.4086  -0.2238   0.6401
  24 O3  :2px   -0.0596   0.1799  -0.0834   0.0493   0.2659  -0.2349
  25 O3  :2py    0.1206   0.1881   0.0767   0.0379   0.0701   0.1497
  26 O3  :2px   -0.2026   0.3284   0.0810  -0.1608   0.1095  -0.0180
  27 O3  :2py    0.6095   0.2137  -0.2083   0.0532   0.2286  -0.1483
  28 O3  :3d2-   0.0210   0.0011  -0.0033   0.0106   0.0024  -0.0460
  29 O3  :3d0    0.0194   0.0064  -0.0108   0.0010  -0.0015  -0.0237
  30 O3  :3d2+   0.0129  -0.0140  -0.0139  -0.0229   0.0038  -0.0077
  31 O7  :1s     0.0046   0.0442   0.0188  -0.0477   0.0623   0.0437
  32 O7  :1s     0.0081  -0.2116   0.0665  -0.1699   0.2985   0.2564
  33 O7  :1s    -0.0272  -1.3707  -0.2880   0.8452  -0.9839  -0.6455
  34 O7  :2px   -0.0155  -0.2609   0.0194  -0.2715   0.0626  -0.3043
  35 O7  :2py   -0.1926  -0.2505  -0.0358  -0.1643   0.1448   0.4511
  36 O7  :2px    0.1014  -0.4102  -0.4270   0.1094   0.0154  -0.0874
  37 O7  :2py   -0.2768  -0.6379   0.0101   0.1616  -0.3867  -0.3362
  38 O7  :3d2-  -0.0033  -0.0033   0.0237   0.0510  -0.0365  -0.0116
  39 O7  :3d0    0.0143   0.0114   0.0041  -0.0215   0.0466   0.0665
  40 O7  :3d2+  -0.0166   0.0013  -0.0351  -0.0611  -0.0292  -0.0468
  41 H4  :1s    -0.2954   0.3456  -1.0149   0.5758  -0.4966   0.3717
  42 H4  :1s     0.3699  -0.5467   0.3982  -0.3328   0.2718   0.3999
  43 H4  :2px   -0.0181   0.0483  -0.0017  -0.0622  -0.0111  -0.0311
  44 H4  :2py   -0.0138  -0.0000  -0.0203   0.0569  -0.0231  -0.0438
  45 H5  :1s     0.1221  -0.0674   0.6709  -0.2648  -0.2465   0.1414
  46 H5  :1s    -0.3283   0.1820  -0.3181   0.0154   0.1059  -0.4336
  47 H5  :2px    0.0172  -0.0269  -0.0182  -0.0025  -0.0325   0.0013
  48 H5  :2py    0.0078   0.0020   0.0466  -0.0407   0.0102  -0.0498
  49 H5  :2pz    0.0004  -0.0114   0.0517  -0.0142   0.0054   0.0089
  50 H8  :1s    -0.2267  -0.0022  -0.7064  -0.7459  -0.4865  -1.1809
  51 H8  :1s    -0.2074  -0.6934   0.7922   1.0513   0.2007   1.2791
  52 H8  :2px    0.0152   0.0064   0.0091   0.0743   0.1205   0.2250
  53 H8  :2py    0.0016  -0.0136  -0.0413  -0.0727   0.1033  -0.0130

 Molecular orbitals for symmetry species 2  (A" )
 ------------------------------------------------

    Orbital         1        2        3        4        5        6        7
   1 C1  :2pz    0.3093   0.5515   0.1031   0.1500  -0.4493  -0.3035  -0.2345
   2 C1  :2pz   -0.0654  -0.0586  -0.0310   0.4785  -1.1298   1.2738   1.0620
   3 C1  :3d1-  -0.0090  -0.0221  -0.0055   0.0109   0.0277   0.1563   0.0748
   4 C1  :3d1+  -0.0088   0.0095   0.0090  -0.0425  -0.0331   0.0033  -0.0531
   5 C2  :2pz    0.4209  -0.1072  -0.2663   0.6673   0.3556  -0.7298   1.2906
   6 C2  :2pz   -0.0564  -0.0085   0.0208   0.2307   0.4591   0.3394  -2.1520
   7 C2  :3d1-  -0.0029   0.0059  -0.0676  -0.0199  -0.0122   0.0408   0.0208
   8 C2  :3d1+  -0.0165   0.0329   0.0188   0.0251   0.0040   0.0336  -0.0156
   9 O3  :2pz    0.3431  -0.1230  -0.6673  -0.4495  -0.2254   0.0266   0.1048
  10 O3  :2pz   -0.0127   0.0016  -0.0356  -0.2111  -0.1772   0.0646   0.1532
  11 O3  :3d1-  -0.0164   0.0046   0.0205  -0.0061  -0.0055   0.0226  -0.0247
  12 O3  :3d1+   0.0090  -0.0024  -0.0113   0.0060   0.0010  -0.0037   0.0200
  13 O7  :2pz    0.5366  -0.4613   0.5458  -0.2376  -0.2169   0.0572   0.1711
  14 O7  :2pz    0.0043  -0.0225   0.0595  -0.1158  -0.1127  -0.0131   0.1217
  15 O7  :3d1-   0.0171  -0.0114   0.0071   0.0106   0.0051  -0.0164   0.0155
  16 O7  :3d1+   0.0011   0.0019  -0.0044   0.0101   0.0090  -0.0024   0.0122
  17 H4  :2pz    0.0066   0.0107   0.0014  -0.0027  -0.0017   0.0674   0.0349
  18 H5  :1s     0.2364   0.4654   0.1133  -0.2347  -0.0672  -1.0871  -0.4747
  19 H5  :1s    -0.0727  -0.1359   0.0032  -0.7232   1.6582   0.5815   0.3010
  20 H5  :2px   -0.0044  -0.0074  -0.0054  -0.0048  -0.0151  -0.0060   0.0539
  21 H5  :2py    0.0080   0.0136   0.0031  -0.0033   0.0123   0.0400   0.0171
  22 H5  :2pz   -0.0059  -0.0086  -0.0024   0.0057  -0.0153  -0.0023  -0.0094
  23 H8  :2pz    0.0164  -0.0154   0.0158  -0.0143  -0.0122   0.0060  -0.0378

    Orbital         8        9       10       11       12       13
   1 C1  :2pz   -1.2746  -0.2986  -0.1279  -0.1177  -0.0051  -0.0429
   2 C1  :2pz    2.4768   0.6629   0.4463   0.4352  -0.3684  -0.2665
   3 C1  :3d1-  -0.2597  -0.2291  -0.0545  -0.0215   0.1667   0.0843
   4 C1  :3d1+   0.2023  -0.4294  -0.0454  -0.0702  -0.0665   0.1536
   5 C2  :2pz   -0.0344  -0.0835   0.0256   0.1504   0.0343  -0.1236
   6 C2  :2pz   -0.0973  -0.2957  -0.2679  -1.0796   0.2299   0.2378
   7 C2  :3d1-   0.0109  -0.1064   0.2797  -0.2162   0.7776   0.2117
   8 C2  :3d1+  -0.1364   0.3964   0.0115   0.3365   0.2575   0.5473
   9 O3  :2pz   -0.1011   0.2960   0.6865  -1.0310  -0.2845   0.1203
  10 O3  :2pz    0.0321  -0.0509  -0.8976   1.7523  -0.0427  -0.1471
  11 O3  :3d1-   0.0017   0.0223  -0.0135   0.0489  -0.0089   0.0286
  12 O3  :3d1+   0.0048   0.0133   0.0080  -0.0174   0.0607   0.0407
  13 O7  :2pz    0.0396   0.2771  -1.1256  -0.7045   0.3483   0.0059
  14 O7  :2pz   -0.0620  -0.1610   1.5241   1.0528  -0.3482   0.4693
  15 O7  :3d1-   0.0059  -0.0267  -0.0365  -0.0270  -0.0576  -0.0934
  16 O7  :3d1+   0.0014   0.0191  -0.0228  -0.0098  -0.1015   0.0990
  17 H4  :2pz   -0.0454  -0.1976   0.0031   0.0266  -0.0824  -0.0051
  18 H5  :1s     0.3912  -0.0476  -0.0260  -0.0247   0.3310   0.2254
  19 H5  :1s    -1.6907  -0.2127  -0.2450  -0.0768  -0.0482  -0.1181
  20 H5  :2px    0.1034  -0.2152  -0.0407   0.0342   0.0756   0.2818
  21 H5  :2py   -0.1434  -0.1196  -0.0219  -0.0358  -0.0365  -0.0307
  22 H5  :2pz    0.1646   0.0430   0.0136  -0.0122  -0.0228  -0.1078
  23 H8  :2pz    0.0036  -0.0867   0.0837   0.1181   0.4293  -0.7261

  Total CPU  time used in SIRIUS :   1.04 seconds
  Total wall time used in SIRIUS :   1.04 seconds

 
     Date and time (Linux)  : Mon May  4 22:31:27 2026
     Host name              : debian                                  


                     .---------------------------------------.
                     | End of Wave Function Section (SIRIUS) |
                     `---------------------------------------'

  Total CPU  time used in DALTON:   1.14 seconds
  Total wall time used in DALTON:   1.14 seconds

 
     Date and time (Linux)  : Mon May  4 22:31:27 2026
     Host name              : debian                                  
