
    -----------------------------------------------------------------------
          Psi4: An Open-Source Ab Initio Electronic Structure Package
                               Psi4 1.10 release

                         Git: Rev {} zzzzzzz 


    D. G. A. Smith, L. A. Burns, A. C. Simmonett, R. M. Parrish,
    M. C. Schieber, R. Galvelis, P. Kraus, H. Kruse, R. Di Remigio,
    A. Alenaizan, A. M. James, S. Lehtola, J. P. Misiewicz, M. Scheurer,
    R. A. Shaw, J. B. Schriber, Y. Xie, Z. L. Glick, D. A. Sirianni,
    J. S. O'Brien, J. M. Waldrop, A. Kumar, E. G. Hohenstein,
    B. P. Pritchard, B. R. Brooks, H. F. Schaefer III, A. Yu. Sokolov,
    K. Patkowski, A. E. DePrince III, U. Bozkaya, R. A. King,
    F. A. Evangelista, J. M. Turney, T. D. Crawford, C. D. Sherrill,
    J. Chem. Phys. 152(18) 184108 (2020). https://doi.org/10.1063/5.0006002

                            Additional Code Authors
    E. T. Seidl, C. L. Janssen, E. F. Valeev, M. L. Leininger,
    J. F. Gonthier, R. M. Richard, H. R. McAlexander, M. Saitow, X. Wang,
    P. Verma, M. H. Lechner, A. Jiang, S. Behnle, A. G. Heide,
    M. F. Herbst, D. L. Poole, T. Győri, E. C. Mitchell, J. P. Pederson,
    and A. M. Wallace

             Previous Authors, Complete List of Code Contributors,
                       and Citations for Specific Modules
    https://github.com/psi4/psi4/blob/master/codemeta.json
    https://github.com/psi4/psi4/graphs/contributors
    https://psicode.org/psi4manual/master/introduction.html#citing-psifour

    -----------------------------------------------------------------------


    Psi4 started on: Tuesday, 05 May 2026 09:01AM

    Process ID: 7792
    Host:       debian
    PSIDATADIR: /home/vdwv/DIPLOM_ITMO/CALCULATIONS_AND_SOFTS/softwares/Psi4_Shenanigans/psi4conda/share/psi4
    Memory:     500.0 MiB
    Threads:    1
    Addons:     adcc, a̶m̶b̶i̶t̶, b̶s̶e̶, c̶c̶t̶3̶, c̶f̶o̶u̶r̶, c̶h̶e̶m̶p̶s̶2̶, c̶p̶p̶e̶, ddx, dftd3, dftd4,
                dkh, ecpint, einsums, f̶o̶r̶t̶e̶, g̶a̶u̶x̶c̶, gcp, g̶d̶m̶a̶, geometric,
                g̶p̶u̶_̶d̶f̶c̶c̶, i̶n̶t̶e̶g̶r̶a̶t̶o̶r̶x̶x̶, i̶p̶i̶, libefp, m̶d̶i̶, m̶p̶2̶d̶,
                m̶r̶c̶c̶, ooo, o̶p̶e̶n̶f̶e̶r̶m̶i̶o̶n̶p̶s̶i̶4̶, pcmsolver, p̶s̶i̶4̶f̶o̶c̶k̶c̶i̶,
                p̶s̶i̶x̶a̶s̶, r̶e̶s̶p̶, s̶i̶m̶i̶n̶t̶, s̶n̶s̶m̶p̶2̶, v̶2̶r̶d̶m̶_̶c̶a̶s̶s̶c̶f̶

  ==> Input File <==

--------------------------------------------------------------------------
#! Sample HF/cc-pVDZ CCl2O computation

memory 600 mb

molecule ccl2o {
  C1   0.000  1.389  0.000
  C2   1.203  0.694  0.000
  C3   1.203 -0.694  0.000
  C4   0.000 -1.389  0.000
  C5  -1.203 -0.694  0.000
  C6  -1.203  0.694  0.000

  H7   0.000  2.471  0.000
  H8   2.140  1.235  0.000
  H9   2.140 -1.235  0.000
  H10  0.000 -2.471  0.000
  H11 -2.140 -1.235  0.000
  H12 -2.140  1.235  0.000

  units angstrom
}


set basis cc-pVDZ
energy('scf')

--------------------------------------------------------------------------

  Memory set to 572.205 MiB by Python driver.

Scratch directory: /tmp/
   => Libint2 <=

    Primary   basis highest AM E, G, H:  6, 6, 3
    Auxiliary basis highest AM E, G, H:  7, 7, 4
    Onebody   basis highest AM E, G, H:  -, -, -
    Solid Harmonics ordering:            Gaussian

*** tstart() called on debian
*** at Tue May  5 09:01:14 2026

   => Loading Basis Set <=

    Name: CC-PVDZ
    Role: ORBITAL
    Keyword: BASIS
    atoms 1-6  entry C          line   138 file /home/vdwv/DIPLOM_ITMO/CALCULATIONS_AND_SOFTS/softwares/Psi4_Shenanigans/psi4conda/share/psi4/basis/cc-pvdz.gbs 
    atoms 7-12 entry H          line    22 file /home/vdwv/DIPLOM_ITMO/CALCULATIONS_AND_SOFTS/softwares/Psi4_Shenanigans/psi4conda/share/psi4/basis/cc-pvdz.gbs 


         ---------------------------------------------------------
                                   SCF
               by Justin Turney, Rob Parrish, Andy Simmonett
                          and Daniel G. A. Smith
                              RHF Reference
                        1 Threads,    572 MiB Core
         ---------------------------------------------------------

  ==> Geometry <==

    Molecular point group: d2h
    Full point group: D2h

    Geometry (in Angstrom), charge = 0, multiplicity = 1:

       Center              X                  Y                   Z               Mass       
    ------------   -----------------  -----------------  -----------------  -----------------
         C           -0.000000000000     1.389000000000     0.000000000000    12.000000000000
         C            1.203000000000     0.694000000000     0.000000000000    12.000000000000
         C            1.203000000000    -0.694000000000     0.000000000000    12.000000000000
         C            0.000000000000    -1.389000000000     0.000000000000    12.000000000000
         C           -1.203000000000    -0.694000000000     0.000000000000    12.000000000000
         C           -1.203000000000     0.694000000000     0.000000000000    12.000000000000
         H           -0.000000000000     2.471000000000     0.000000000000     1.007825032230
         H            2.140000000000     1.235000000000     0.000000000000     1.007825032230
         H            2.140000000000    -1.235000000000     0.000000000000     1.007825032230
         H            0.000000000000    -2.471000000000     0.000000000000     1.007825032230
         H           -2.140000000000    -1.235000000000     0.000000000000     1.007825032230
         H           -2.140000000000     1.235000000000     0.000000000000     1.007825032230

  Running in d2h symmetry.

  Rotational constants: A =      0.19183  B =      0.19172  C =      0.09589 [cm^-1]
  Rotational constants: A =   5750.90891  B =   5747.66067  C =   2874.64217 [MHz]
  Nuclear repulsion =  204.289668769551412

  Charge       = 0
  Multiplicity = 1
  Electrons    = 42
  Nalpha       = 21
  Nbeta        = 21

  ==> Algorithm <==

  SCF Algorithm Type is DF.
  DIIS enabled.
  MOM disabled.
  Fractional occupation disabled.
  Guess Type is SAD.
  Energy threshold   = 1.00e-06
  Density threshold  = 1.00e-06
  Integral threshold = 1.00e-12

  ==> Primary Basis <==

  Basis Set: CC-PVDZ
    Blend: CC-PVDZ
    Number of shells: 54
    Number of basis functions: 114
    Number of Cartesian functions: 120
    Spherical Harmonics?: true
    Max angular momentum: 2

   => Loading Basis Set <=

    Name: (CC-PVDZ AUX)
    Role: JKFIT
    Keyword: DF_BASIS_SCF
    atoms 1-6  entry C          line   121 file /home/vdwv/DIPLOM_ITMO/CALCULATIONS_AND_SOFTS/softwares/Psi4_Shenanigans/psi4conda/share/psi4/basis/cc-pvdz-jkfit.gbs 
    atoms 7-12 entry H          line    51 file /home/vdwv/DIPLOM_ITMO/CALCULATIONS_AND_SOFTS/softwares/Psi4_Shenanigans/psi4conda/share/psi4/basis/cc-pvdz-jkfit.gbs 

  ==> Integral Setup <==

  DFHelper Memory: AOs need 0.058 GiB; user supplied 0.419 GiB. 
  SCF_SUBTYPE=INCORE selected. In-core MEM_DF algorithm will be used.
  Using in-core AOs.

  ==> MemDFJK: Density-Fitted J/K Matrices <==

    J tasked:                   Yes
    K tasked:                   Yes
    wK tasked:                   No
    OpenMP threads:               1
    Memory [MiB]:               429
    Algorithm:                 Core
    Schwarz Cutoff:           1E-12
    Mask sparsity (%):       0.3693
    Fitting Condition:        1E-10

   => Auxiliary Basis Set <=

  Basis Set: (CC-PVDZ AUX)
    Blend: CC-PVDZ-JKFIT
    Number of shells: 198
    Number of basis functions: 558
    Number of Cartesian functions: 636
    Spherical Harmonics?: true
    Max angular momentum: 3

  Minimum eigenvalue in the overlap matrix is 5.3661495590E-04.
  Reciprocal condition number of the overlap matrix is 9.6915570602E-05.
    Using symmetric orthogonalization.

  ==> Pre-Iterations <==

  SCF Guess: Superposition of Atomic Densities via on-the-fly atomic UHF (no occupation information).

   -------------------------
    Irrep   Nso     Nmo    
   -------------------------
     Ag        24      24 
     B1g       18      18 
     B2g        6       6 
     B3g        9       9 
     Au         6       6 
     B1u        9       9 
     B2u       24      24 
     B3u       18      18 
   -------------------------
    Total     114     114
   -------------------------

  ==> Iterations <==

                           Total Energy        Delta E     RMS |[F,P]|

   @DF-RHF iter SAD:  -225.62319199963451   -2.25623e+02   0.00000e+00 
    Occupation by irrep:
             Ag   B1g   B2g   B3g    Au   B1u   B2u   B3u 
    DOCC [     6,    3,    1,    1,    0,    1,    5,    4 ]
    NA   [     6,    3,    1,    1,    0,    1,    5,    4 ]
    NB   [     6,    3,    1,    1,    0,    1,    5,    4 ]

   @DF-RHF iter   1:  -214.14083738020261    1.14824e+01   8.79263e-02 ADIIS/DIIS
   @DF-RHF iter   2:  -224.29517404822167   -1.01543e+01   7.06199e-02 ADIIS/DIIS
   @DF-RHF iter   3:  -230.61016529814356   -6.31499e+00   8.95820e-03 ADIIS/DIIS
   @DF-RHF iter   4:  -230.71476221023951   -1.04597e-01   2.02796e-03 ADIIS/DIIS
   @DF-RHF iter   5:  -230.72162563628569   -6.86343e-03   3.75397e-04 ADIIS/DIIS
   @DF-RHF iter   6:  -230.72191917791707   -2.93542e-04   4.08047e-05 DIIS
   @DF-RHF iter   7:  -230.72192292949347   -3.75158e-06   6.76104e-06 DIIS
   @DF-RHF iter   8:  -230.72192303146073   -1.01967e-07   2.09432e-06 DIIS
   @DF-RHF iter   9:  -230.72192303605581   -4.59508e-09   4.91478e-07 DIIS
  Energy and wave function converged.


  ==> Post-Iterations <==

    Orbital Energies [Eh]
    ---------------------

    Doubly Occupied:                                                      

       1Ag   -11.237131     1B2u  -11.236607     1B3u  -11.236511  
       2Ag   -11.235379     1B1g  -11.235277     2B2u  -11.234729  
       3Ag    -1.151792     2B3u   -1.015079     3B2u   -1.014640  
       4Ag    -0.822771     2B1g   -0.822394     5Ag    -0.707588  
       4B2u   -0.640094     3B3u   -0.617332     4B3u   -0.585449  
       5B2u   -0.585184     1B1u   -0.501347     6Ag    -0.491078  
       3B1g   -0.490593     1B2g   -0.334756     1B3g   -0.334335  

    Virtual:                                                              

       2B1u    0.138591     1Au     0.139015     7Ag     0.182580  
       5B3u    0.220125     6B2u    0.220184     8Ag     0.256349  
       4B1g    0.256418     7B2u    0.273444     2B3g    0.353854  
       9Ag     0.439229     5B1g    0.439483     6B3u    0.472105  
       8B2u    0.472439     7B3u    0.583875    10Ag     0.590245  
       9B2u    0.678109     3B1u    0.679557    11Ag     0.712855  
       2B2g    0.730725     3B3g    0.730937     8B3u    0.741644  
      10B2u    0.742041    12Ag     0.746337     6B1g    0.746825  
       7B1g    0.747458     4B1u    0.823150     2Au     0.823350  
       9B3u    0.853126    11B2u    0.853466    13Ag     0.890502  
       8B1g    0.890927     4B3g    0.911829    12B2u    0.993216  
      14Ag     0.998729     5B1u    1.048099    10B3u    1.108717  
      13B2u    1.109178     9B1g    1.131817     3B2g    1.154601  
      15Ag     1.205614    10B1g    1.205785     5B3g    1.247873  
       4B2g    1.247908    11B3u    1.249383    14B2u    1.249594  
      15B2u    1.318179     3Au     1.323698     6B1u    1.323762  
      16Ag     1.470737    17Ag     1.517488    11B1g    1.517674  
      12B3u    1.721994     7B1u    1.747328     4Au     1.747586  
       6B3g    1.770827    18Ag     1.818198    12B1g    1.876268  
      19Ag     1.876417     8B1u    1.900933    13B3u    1.904601  
      16B2u    1.904764     5B2g    1.954761     7B3g    1.955150  
      17B2u    1.967469    14B3u    1.967781    18B2u    1.968296  
       6B2g    2.098418     8B3g    2.098810    15B3u    2.130810  
      16B3u    2.154905    19B2u    2.155144    13B1g    2.170987  
      20Ag     2.176755    14B1g    2.177350     9B1u    2.272440  
       5Au     2.272950    21Ag     2.289616    15B1g    2.290024  
      20B2u    2.334705     6Au     2.510701     9B3g    2.571790  
      22Ag     2.712949    16B1g    2.775196    23Ag     2.775766  
      21B2u    2.799442    17B3u    2.799749    18B3u    2.981668  
      22B2u    2.982540    23B2u    3.012505    17B1g    3.149300  
      24Ag     3.294910    18B1g    3.295284    24B2u    4.059118  

    Final Occupation by Irrep:
             Ag   B1g   B2g   B3g    Au   B1u   B2u   B3u 
    DOCC [     6,    3,    1,    1,    0,    1,    5,    4 ]
    NA   [     6,    3,    1,    1,    0,    1,    5,    4 ]
    NB   [     6,    3,    1,    1,    0,    1,    5,    4 ]

  @DF-RHF Final Energy:  -230.72192303605581

   => Energetics <=

    Nuclear Repulsion Energy =            204.2896687695514117
    One-Electron Energy =                -714.9628983429261098
    Two-Electron Energy =                 279.9513065373188283
    Total Energy =                       -230.7219230360558413

Computation Completed


Properties will be evaluated at   0.000000,   0.000000,   0.000000 [a0]

Properties computed using the SCF density matrix


 Multipole Moments:

 ------------------------------------------------------------------------------------
     Multipole            Electronic (a.u.)      Nuclear  (a.u.)        Total (a.u.)
 ------------------------------------------------------------------------------------

 L = 1.  Multiply by 2.5417464519 to convert [e a0] to [Debye]
 Dipole X            :          0.0000000            0.0000000            0.0000000
 Dipole Y            :          0.0000000            0.0000000            0.0000000
 Dipole Z            :          0.0000000            0.0000000            0.0000000
 Magnitude           :                                                    0.0000000

 ------------------------------------------------------------------------------------

*** tstop() called on debian at Tue May  5 09:01:17 2026
Module time:
	user time   =       3.26 seconds =       0.05 minutes
	system time =       0.09 seconds =       0.00 minutes
	total time  =          3 seconds =       0.05 minutes
Total time:
	user time   =       3.26 seconds =       0.05 minutes
	system time =       0.09 seconds =       0.00 minutes
	total time  =          3 seconds =       0.05 minutes

    Psi4 stopped on: Tuesday, 05 May 2026 09:01AM
    Psi4 wall time for execution: 0:00:03.42

*** Psi4 exiting successfully. Buy a developer a beer!
