

     ************************************************************************
     *************** Dalton - An Electronic Structure Program ***************
     ************************************************************************

    This is output from DALTON release Dalton2025.0-dev (2025)
         ( Web site: http://daltonprogram.org )

   ----------------------------------------------------------------------------

    NOTE:
     
    Dalton is an experimental code for the evaluation of molecular
    properties using (MC)SCF, DFT, CI, and CC wave functions.
    The authors accept no responsibility for the performance of
    the code or for the correctness of the results.
     
    The code (in whole or part) is provided under a licence and
    is not to be reproduced for further distribution without
    the written permission of the authors or their representatives.
     
    See the home page "http://daltonprogram.org" for further information.
     
    If results obtained with this code are published,
    the appropriate citations would be both of:
     
       K. Aidas, C. Angeli, K. L. Bak, V. Bakken,
       R. Bast, L. Boman, O. Christiansen, R. Cimiraglia,
       S. Coriani, P. Dahle, E. K. Dalskov, U. Ekstroem,
       T. Enevoldsen, J. J. Eriksen, P. Ettenhuber, B. Fernandez,
       L. Ferrighi, H. Fliegl, L. Frediani, K. Hald, A. Halkier,
       C. Haettig, H. Heiberg, T. Helgaker, A. C. Hennum,
       H. Hettema, E. Hjertenaes, S. Hoest, I.-M. Hoeyvik,
       M. F. Iozzi, B. Jansik, H. J. Aa. Jensen, D. Jonsson,
       P. Joergensen, J. Kauczor, S. Kirpekar,
       T. Kjaergaard, W. Klopper, S. Knecht, R. Kobayashi, H. Koch,
       J. Kongsted, A. Krapp, K. Kristensen, A. Ligabue,
       O. B. Lutnaes, J. I. Melo, K. V. Mikkelsen, R. H. Myhre,
       C. Neiss, C. B. Nielsen, P. Norman, J. Olsen,
       J. M. H. Olsen, A. Osted, M. J. Packer, F. Pawlowski,
       T. B. Pedersen, P. F. Provasi, S. Reine, Z. Rinkevicius,
       T. A. Ruden, K. Ruud, V. Rybkin, P. Salek, C. C. M. Samson,
       A. Sanchez de Meras, T. Saue, S. P. A. Sauer,
       B. Schimmelpfennig, K. Sneskov, A. H. Steindal,
       K. O. Sylvester-Hvid, P. R. Taylor, A. M. Teale,
       E. I. Tellgren, D. P. Tew, A. J. Thorvaldsen, L. Thoegersen,
       O. Vahtras, M. A. Watson, D. J. D. Wilson, M. Ziolkowski
       and H. Agren,
       "The Dalton quantum chemistry program system",
       WIREs Comput. Mol. Sci. 2014, 4:269-284 (doi: 10.1002/wcms.1172)
     
    and
     
       Dalton, a molecular electronic structure program,
       Release Dalton2025.0-dev (2025), see http://daltonprogram.org
   ----------------------------------------------------------------------------

    Authors in alphabetical order (Major contribution(s) in parenthesis):

  Kestutis Aidas,              Vilnius University,        Lithuania   (QM/MM)
  Celestino Angeli,            University of Ferrara,     Italy       (NEVPT2)
  Juan J. Aucar,               Northeast National UniversiArgentina   (LRESC, Relativistic Effects on NMR Shieldings and EFG)
  Keld L. Bak,                 UNI-C,                     Denmark     (AOSOPPA, non-adiabatic coupling, magnetic properties)
  Vebjoern Bakken,             University of Oslo,        Norway      (DALTON; geometry optimizer, symmetry detection)
  Radovan Bast,                UiT The Arctic U. of NorwayNorway      (DALTON installation and execution frameworks)
  Pablo Baudin,                University of Valencia,    Spain       (Cholesky excitation energies)
  Linus Boman,                 NTNU,                      Norway      (Cholesky decomposition and subsystems)
  Bruno N. Cabral Tenorio,     Technical Univ. of Denmark,Denmark     (Lanczos-based CC methods)
  Ove Christiansen,            Aarhus University,         Denmark     (CC module)
  Renzo Cimiraglia,            University of Ferrara,     Italy       (NEVPT2)
  Sonia Coriani,               Technical Univ. of Denmark,Denmark     (CC and RESPONS modules)
  Janusz Cukras,               University of Warsaw,      Poland      (MChD in RESPONS)
  Paal Dahle,                  University of Oslo,        Norway      (Parallelization)
  Erik K. Dalskov,             UNI-C,                     Denmark     (SOPPA)
  Thomas Enevoldsen,           Univ. of Southern Denmark, Denmark     (SOPPA)
  Janus J. Eriksen,            Aarhus University,         Denmark     (Polarizable embedding, TDA)
  Rasmus Faber,                Technical Univ. of Denmark,Denmark     (Vib.avg. NMR w. SOPPA, parallel AO-SOPPA, CVS-CC and EOMCC)
  Tobias Fahleson,             KTH Stockholm,             Sweden      (Damped cubic response)
  Berta Fernandez,             U. of Santiago de CompostelSpain       (Doublet spin, ESR in RESPONS)
  Lara Ferrighi,               Aarhus University,         Denmark     (PCM Cubic response)
  Heike Fliegl,                University of Oslo,        Norway      (CCSD(R12))
  Luca Frediani,               UiT The Arctic U. of NorwayNorway      (PCM)
  Emmanuel Fromager,           Univ. Strasbourg,          France      (MC-srDFT)
  Bin Gao,                     UiT The Arctic U. of NorwayNorway      (Gen1Int library)
  Andre S. P. Gomes,           CNRS/Universite de Lille,  France      (Frozen density embedding)
  Christof Haettig,            Ruhr-University Bochum,    Germany     (CC module)
  Kasper Hald,                 Aarhus University,         Denmark     (CC module)
  Asger Halkier,               Aarhus University,         Denmark     (CC module)
  Frederik Beyer Hansen,       University of Copenhagen,  Denmark     (Parallel AO-SOPPA)
  Erik D. Hedegaard,           Univ. of Southern Denmark, Denmark     (Polarizable embedding, QM/MM, and MC-srDFT)
  Hanne Heiberg,               University of Oslo,        Norway      (Geometry analysis, selected one-electron integrals)
  Trygve Helgaker,             University of Oslo,        Norway      (DALTON; ABACUS, ERI, DFT modules, London, and much more)
  Alf Christian Hennum,        University of Oslo,        Norway      (Parity violation)
  Hinne Hettema,               University of Auckland,    New Zealand (Quadratic response in RESPONS; SIRIUS supersymmetry)
  Andreas E. Hillers-Bendtsen, University of Copenhagen,  Denmark     (MP3)
  Eirik Hjertenaes,            NTNU,                      Norway      (Cholesky decomposition)
  Nicolai Machholdt Hoeyer,    Aarhus University,         Denmark     (MP3)
  Pi A. B. Haase,              University of Copenhagen,  Denmark     (Triplet AO-SOPPA)
  Maria Francesca Iozzi,       University of Oslo,        Norway      (RPA)
  Christoph Jacob,             TU Braunschweig            Germany     (Frozen density embedding)
  Brano Jansik,                Technical Univ. of Ostrava Czech Rep.  (DFT cubic response)
  Hans Joergen Aa. Jensen,     Univ. of Southern Denmark, Denmark     (DALTON; SIRIUS, RESPONS, ABACUS, MC-srDFT, and much more)
  Dan Jonsson,                 UiT The Arctic U. of NorwayNorway      (Cubic response in RESPONS module)
  Poul Joergensen,             Aarhus University,         Denmark     (RESPONS, ABACUS, and CC modules)
  Maciej Kaminski,             University of Warsaw,      Poland      (CPPh in RESPONS)
  Joanna Kauczor,              Linkoeping University,     Sweden      (Complex polarization propagator (CPP) module)
  Sheela Kirpekar,             Univ. of Southern Denmark, Denmark     (Mass-velocity & Darwin integrals)
  Frederik Oersted Kjeldal,    Technical Univ. of Denmark,Denmark     (MP3)
  Erik Kjellgren,              Univ. of Southern Denmark, Denmark     (MC-srDFT)
  Wim Klopper,                 KIT Karlsruhe,             Germany     (R12 code in CC, SIRIUS, and ABACUS modules)
  Stefan Knecht,               ETH Zurich,                Switzerland (Parallel CI and MCSCF, MC-srDFT)
  Rika Kobayashi,              Australian National Univ., Australia   (DIIS in CC, London in MCSCF)
  Henrik Koch,                 NTNU,                      Norway      (CC module, Cholesky decomposition)
  Jacob Kongsted,              Univ. of Southern Denmark, Denmark     (Polarizable embedding, polarizable density embedding, QM/MM)
  Andrea Ligabue,              University of Modena,      Italy       (CTOCD, AOSOPPA)
  Nanna H. List,               Univ. of Southern Denmark, Denmark     (Polarizable embedding)
  Ola B. Lutnaes,              University of Oslo,        Norway      (DFT Hessian)
  Juan I. Melo,                University of Buenos Aires,Argentina   (LRESC, Relativistic Effects on NMR Shieldings)
  Kurt V. Mikkelsen,           University of Copenhagen,  Denmark     (MC-SCRF, QM/MM, and MP3)
  Rolf H. Myhre,               NTNU,                      Norway      (Subsystems and CC3)
  Christian Neiss,             Univ. Erlangen-Nuernberg,  Germany     (CCSD(R12))
  Christian B. Nielsen,        University of Copenhagen,  Denmark     (QM/MM)
  Patrick Norman,              KTH Stockholm,             Sweden      (Cubic response and complex frequency response in RESPONS)
  Jeppe Olsen,                 Aarhus University,         Denmark     (SIRIUS CI/density modules)
  Jogvan Magnus H. Olsen,      Aarhus University,         Denmark     (Polarizable embedding and polarizable density embedding)
  Anders Osted,                Copenhagen University,     Denmark     (QM/MM)
  Martin J. Packer,            University of Sheffield,   UK          (SOPPA)
  Filip Pawlowski,             Kazimierz Wielki UniversityPoland      (CC3)
  Morten N. Pedersen,          Univ. of Southern Denmark, Denmark     (Polarizable embedding)
  Thomas B. Pedersen,          University of Oslo,        Norway      (Cholesky decomposition)
  Patricio F. Provasi,         University of Northeastern,Argentina   (Analysis of coupling constants in localized orbitals)
  Peter Reinholdt,             Univ. of Southern Denmark, Denmark     (Polarizable embedding and polarizable density embedding)
  Zilvinas Rinkevicius,        KTH Stockholm,             Sweden      (open-shell DFT, ESR)
  Elias Rudberg,               KTH Stockholm,             Sweden      (DFT grid and basis info)
  Torgeir A. Ruden,            University of Oslo,        Norway      (Numerical derivatives in ABACUS)
  Kenneth Ruud,                UiT The Arctic U. of NorwayNorway      (DALTON; ABACUS magnetic properties and much more)
  Pawel Salek,                 KTH Stockholm,             Sweden      (DALTON; DFT code)
  Claire C. M. Samson,         University of Karlsruhe    Germany     (Boys localization, r12 integrals in ERI)
  Alfredo Sanchez de Meras,    University of Valencia,    Spain       (CC module, Cholesky decomposition)
  Trond Saue,                  Paul Sabatier University,  France      (direct Fock matrix construction)
  Stephan P. A. Sauer,         University of Copenhagen,  Denmark     (SOPPA(CCSD), SOPPA prop., AOSOPPA, vibrational g-factors)
  Bernd Schimmelpfennig,       Forschungszentrum KarlsruheGermany     (AMFI module)
  Anna K. Schnack-Petersen,    University of Copenhagen,  Denmark     (RPA(D) and HRPA(D) properties in AOSOPPA)
  Kristian Sneskov,            Aarhus University,         Denmark     (Polarizable embedding, QM/MM)
  Arnfinn H. Steindal,         UiT The Arctic U. of NorwayNorway      (parallel QM/MM, polarizable embedding)
  Casper Steinmann,            Aalborg University,        Denmark     (QFIT, polarizable embedding)
  K. O. Sylvester-Hvid,        University of Copenhagen,  Denmark     (MC-SCRF)
  Peter R. Taylor,             VLSCI/Univ. of Melbourne,  Australia   (Symmetry handling ABACUS, integral transformation)
  Andrew M. Teale,             University of Nottingham,  England     (DFT-AC, DFT-D)
  David P. Tew,                University of Bristol,     England     (CCSD(R12))
  Julien Toulouse,             Sorbonne Univ.,            France      (MC-srDFT)
  Olav Vahtras,                KTH Stockholm,             Sweden      (Triplet response, spin-orbit, ESR, TDDFT, open-shell DFT)
  Lucas Visscher,              Vrije Universiteit AmsterdaNetherlands (Frozen density embedding)
  David J. Wilson,             La Trobe University,       Australia   (DFT Hessian and DFT magnetizabilities)
  Luna Zamok,                  University of Copenhagen,  Denmark     (Block Lanczos RPA solver in SOPPA module)
  Hans Agren,                  KTH Stockholm,             Sweden      (SIRIUS module, RESPONS, MC-SCRF solvation)
 --------------------------------------------------------------------------------

     Date and time (Linux)  : Mon May  4 20:16:52 2026
     Host name              : debian                                  

 * Work memory size             :    64000000 =  488.28 megabytes.

 * Directories for basis set searches:
   1) /home/vdwv/DIPLOM_ITMO/CALCULATIONS_AND_SOFTS/softwares/Dalton_Shenanigans/dalton/dalton/build
   2) /home/vdwv/DIPLOM_ITMO/CALCULATIONS_AND_SOFTS/softwares/Dalton_Shenanigans/dalton/dalton/build/basis


Compilation information
-----------------------

 Who compiled             | vdwv
 Host                     | debian
 System                   | Linux-6.12.73+deb13-amd64
 CMake generator          | Unix Makefiles
 Processor                | x86_64
 64-bit integers          | OFF
 MPI                      | OFF
 Fortran compiler         | /usr/bin/gfortran
 Fortran compiler version | GNU Fortran (Debian 14.2.0-19) 14.2.0
 C compiler               | /usr/bin/gcc
 C compiler version       | gcc (Debian 14.2.0-19) 14.2.0
 C++ compiler             | /usr/bin/g++
 C++ compiler version     | g++ (Debian 14.2.0-19) 14.2.0
 BLAS                     | /opt/intel/oneapi/mkl/2025.3/lib/intel64/libmkl_gf
                          | _lp64.so;/opt/intel/oneapi/mkl/2025.3/lib/intel64/
                          | libmkl_sequential.so;/opt/intel/oneapi/mkl/2025.3/
                          | lib/intel64/libmkl_core.so;/usr/lib/x86_64-linux-g
                          | nu/libpthread.a;/usr/lib/x86_64-linux-gnu/libm.so
 LAPACK                   | /opt/intel/oneapi/mkl/2025.3/lib/intel64/libmkl_la
                          | pack95_lp64.a;/opt/intel/oneapi/mkl/2025.3/lib/int
                          | el64/libmkl_gf_lp64.so
 Static linking           | OFF
 Last Git revision        | 1892235f9264b9be21ec2fefe6e0081d659ab244
 Git branch               | master
 Configuration time       | 2026-05-04 17:50:26.788788

 * Sequential calculation.


   Content of the .dal input file
 ----------------------------------

BASIS
cc-pVTZ
Water using the cc-pVTZ basis
Using automatic symmetry detection.
Atomtypes=2 Angstrom
Charge=8.0 Atoms=1
O    0.000  0.000  0.113
Charge=1.0 Atoms=2
H1   0.000  0.751 -0.453
H2   0.000 -0.751 -0.453

**DALTON INPUT
.RUN WAVE FUN
**WAVE FUN
.HF
**END OF


       *******************************************************************
       *********** Output from DALTON general input processing ***********
       *******************************************************************

 --------------------------------------------------------------------------------
   Overall default print level:    0
   Print level for DALTON.STAT:    1

    HERMIT 1- and 2-electron integral sections will be executed
    "Old" integral transformation used (limited to max 255 basis functions)
    Wave function sections will be executed (SIRIUS module)
 --------------------------------------------------------------------------------


   ****************************************************************************
   *************** Output of molecule and basis set information ***************
   ****************************************************************************


    The two title cards from your ".mol" input:
    --------------------------------------------------------------------------------
 1: Water using the cc-pVTZ basis
 2: Using automatic symmetry detection.
    --------------------------------------------------------------------------------

  Coordinates are entered in Angstrom and converted to atomic units.
          - Conversion factor : 1 bohr = 0.52917721080 A

  Atomic type no.    1
  --------------------
  Nuclear charge:   8.00000
  Number of symmetry independent centers:    1
  Number of basis sets to read;    2
  Basis set file used for this atomic type with Z =   8 :
     "/home/vdwv/DIPLOM_ITMO/CALCULATIONS_AND_SOFTS/softwares/Dalton_Shenanigans/dalton/dalton/build/basis/cc-pVTZ"

  Atomic type no.    2
  --------------------
  Nuclear charge:   1.00000
  Number of symmetry independent centers:    2
  Number of basis sets to read;    2
  Basis set file used for this atomic type with Z =   1 :
     "/home/vdwv/DIPLOM_ITMO/CALCULATIONS_AND_SOFTS/softwares/Dalton_Shenanigans/dalton/dalton/build/basis/cc-pVTZ"


                      SYMADD: Addition of symmetry requested
                      --------------------------------------

 Symmetry test threshold:  5.00E-06

@  The molecule has been centered at center of mass and rotated
@  so the principal axes of inertia are along coordinate axes.

 Symmetry class found: C(2v)          

 Symmetry Independent Centres             
 ----------------------------
O      8 :      0.00000000     0.00000000    -0.11970246  Isotope  1
H2     1 :      0.00000000     1.41918432     0.94988252  Isotope  1

 The following symmetry elements were found:   X  Y     


                         SYMGRP: Point group information
                         -------------------------------

@    Full point group is: C(2v)          
@    Represented as:      C2v

@  * The irrep name for each symmetry:    1: A1     2: B1     3: B2     4: A2 

   * The point group was generated by:

      Reflection in the yz-plane
      Reflection in the xz-plane

   * Group multiplication table

        |  E   C2z  Oxz  Oyz
   -----+--------------------
     E  |  E   C2z  Oxz  Oyz
    C2z | C2z   E   Oyz  Oxz
    Oxz | Oxz  Oyz   E   C2z
    Oyz | Oyz  Oxz  C2z   E 

   * Character table

        |  E   C2z  Oxz  Oyz
   -----+--------------------
    A1  |   1    1    1    1
    B1  |   1   -1    1   -1
    B2  |   1   -1   -1    1
    A2  |   1    1   -1   -1

   * Direct product table

        | A1   B1   B2   A2 
   -----+--------------------
    A1  | A1   B1   B2   A2 
    B1  | B1   A1   A2   B2 
    B2  | B2   A2   A1   B1 
    A2  | A2   B2   B1   A1 


                                 Isotopic Masses
                                 ---------------

                           O          15.994915
                           H2  _1      1.007825
                           H2  _2      1.007825

                       Total mass:    18.010565 amu
                       Natural abundance:  99.730 %

 Center-of-mass coordinates (a.u.):    0.000000    0.000000    0.000000
 Center-of-mass coordinates (Angs):    0.000000    0.000000    0.000000


  Atoms and basis sets
  --------------------

  Number of atom types :    2
  Total number of atoms:    3

  Basis set used is "cc-pVTZ" from the basis set library.

  label    atoms   charge   prim   cont     basis
  ----------------------------------------------------------------------
  O           1    8.0000    42    30      [10s5p2d1f|4s3p2d1f]                               
  H2          2    1.0000    16    14      [5s2p1d|3s2p1d]                                    
  ----------------------------------------------------------------------
  total:      3   10.0000    74    58
  ----------------------------------------------------------------------
  Spherical harmonic basis used.

  Threshold for neglecting AO integrals:  1.00D-12


  Cartesian Coordinates (bohr)
  ----------------------------

  Total number of coordinates:    9
  O       :     1  x   0.0000000000    2  y   0.0000000000    3  z  -0.1197024623
  H2  / 1 :     4  x   0.0000000000    5  y   1.4191843199    6  z   0.9498825244
  H2  / 2 :     7  x   0.0000000000    8  y  -1.4191843199    9  z   0.9498825244


  Cartesian Coordinates (xyz format; angstrom)
  --------------------------------------------

    3

  O        0.0000000000            0.0000000000           -0.0633438151
  H        0.0000000000            0.7510000000            0.5026561849
  H        0.0000000000           -0.7510000000            0.5026561849


  Symmetry Coordinates
  --------------------

  Number of coordinates in each symmetry:     3    2    3    1

  Symmetry  A1  ( 1)

    1   O     z    3
    2   H2    y    [  5  -    8 ]/2
    3   H2    z    [  6  +    9 ]/2

  Symmetry  B1  ( 2)

    4   O     x    1
    5   H2    x    [  4  +    7 ]/2

  Symmetry  B2  ( 3)

    6   O     y    2
    7   H2    y    [  5  +    8 ]/2
    8   H2    z    [  6  -    9 ]/2

  Symmetry  A2  ( 4)

    9   H2    x    [  4  -    7 ]/2


   Interatomic separations (in Angstrom):
   --------------------------------------

            O           H2  _1      H2  _2
            ------      ------      ------
 O     :    0.000000
 H2  _1:    0.940403    0.000000
 H2  _2:    0.940403    1.502000    0.000000


  Max    interatomic separation is    1.5020 Angstrom (    2.8384 Bohr)
  between atoms    3 and    2, "H2  _2" and "H2  _1".

  Min HX interatomic separation is    0.9404 Angstrom (    1.7771 Bohr)


  Bond distances (Angstrom):
  --------------------------

                  atom 1     atom 2       distance
                  ------     ------       --------
  bond distance:  H2  _1     O            0.940403
  bond distance:  H2  _2     O            0.940403


  Bond angles (degrees):
  ----------------------

                  atom 1     atom 2     atom 3         angle
                  ------     ------     ------         -----
  bond angle:     H2  _1     O          H2  _2       105.992




 Principal moments of inertia (u*A**2) and principal axes
 --------------------------------------------------------

   IA       0.573459          0.000000    1.000000    0.000000
   IB       1.136829          0.000000    0.000000    1.000000
   IC       1.710288          1.000000    0.000000    0.000000


 Rotational constants
 --------------------

@    The molecule is planar.

               A                   B                   C

         881281.4164         444551.6229         295493.5292 MHz
           29.396384           14.828646            9.856603 cm-1


@  Nuclear repulsion energy :    9.355730838232 Hartree


  Symmetry Orbitals
  -----------------

  Number of orbitals in each symmetry:          23   11   17    7


  Symmetry  A1 ( 1)

    1     O        1s         1
    2     O        1s         2
    3     O        1s         3
    4     O        1s         4
    5     O        2pz        7
    6     O        2pz       10
    7     O        2pz       13
    8     O        3d0       16
    9     O        3d2+      18
   10     O        3d0       21
   11     O        3d2+      23
   12     O        4f0       27
   13     O        4f2+      29
   14     H2       1s        31 +   32
   15     H2       1s        33 +   34
   16     H2       1s        35 +   36
   17     H2       2py       39 -   40
   18     H2       2pz       41 +   42
   19     H2       2py       45 -   46
   20     H2       2pz       47 +   48
   21     H2       3d1-      51 -   52
   22     H2       3d0       53 +   54
   23     H2       3d2+      57 +   58


  Symmetry  B1 ( 2)

   24     O        2px        5
   25     O        2px        8
   26     O        2px       11
   27     O        3d1+      17
   28     O        3d1+      22
   29     O        4f1+      28
   30     O        4f3+      30
   31     H2       2px       37 +   38
   32     H2       2px       43 +   44
   33     H2       3d2-      49 -   50
   34     H2       3d1+      55 +   56


  Symmetry  B2 ( 3)

   35     O        2py        6
   36     O        2py        9
   37     O        2py       12
   38     O        3d1-      15
   39     O        3d1-      20
   40     O        4f3-      24
   41     O        4f1-      26
   42     H2       1s        31 -   32
   43     H2       1s        33 -   34
   44     H2       1s        35 -   36
   45     H2       2py       39 +   40
   46     H2       2pz       41 -   42
   47     H2       2py       45 +   46
   48     H2       2pz       47 -   48
   49     H2       3d1-      51 +   52
   50     H2       3d0       53 -   54
   51     H2       3d2+      57 -   58


  Symmetry  A2 ( 4)

   52     O        3d2-      14
   53     O        3d2-      19
   54     O        4f2-      25
   55     H2       2px       37 -   38
   56     H2       2px       43 -   44
   57     H2       3d2-      49 +   50
   58     H2       3d1+      55 -   56

  Symmetries of electric field:  B1 (2)  B2 (3)  A1 (1)

  Symmetries of magnetic field:  B2 (3)  B1 (2)  A2 (4)


                     .---------------------------------------.
                     | Starting in Integral Section (HERMIT) |
                     `---------------------------------------'



 ***************************************************************************************
 ****************** Output from **INTEGRALS input processing (HERMIT) ******************
 ***************************************************************************************


 - Using defaults, no **INTEGRALS input found

 Default print level:        1

 Calculation of one- and two-electron Hamiltonian integrals.

 Center of mass  (bohr):      0.000000000000      0.000000000000      0.000000000000
 Operator center (bohr):      0.000000000000      0.000000000000      0.000000000000
 Gauge origin    (bohr):      0.000000000000      0.000000000000      0.000000000000
 Dipole origin   (bohr):      0.000000000000      0.000000000000      0.000000000000

Calculation of 2-electron integrals are postponed until they are needed.


     ************************************************************************
     ************************** Output from HERINT **************************
     ************************************************************************



                      Nuclear contribution to dipole moments
                      --------------------------------------

                 au               Debye          C m (/(10**-30)

      z      0.94214535         2.39469447         7.98784093


  Total CPU  time used in HERMIT:   0.03 seconds
  Total wall time used in HERMIT:   0.03 seconds


                        .----------------------------------.
                        | End of Integral Section (HERMIT) |
                        `----------------------------------'



                   .--------------------------------------------.
                   | Starting in Wave Function Section (SIRIUS) |
                   `--------------------------------------------'


 *** Output from Huckel module :

     Using EWMO model:          F
     Using EHT  model:          T
     Number of Huckel orbitals each symmetry:    4    1    2    0

 Huckel EHT eigenvalues for symmetry :  1
          -20.707340      -1.514068      -0.668152      -0.287013

 Huckel EHT eigenvalues for symmetry :  2
           -0.616200

 Huckel EHT eigenvalues for symmetry :  3
           -0.733818      -0.253309

 **********************************************************************
 *SIRIUS* a direct, restricted step, second order MCSCF program       *
 **********************************************************************

 
     Date and time (Linux)  : Mon May  4 20:16:52 2026
     Host name              : debian                                  

 Title lines from ".mol" input file:
     Water using the cc-pVTZ basis
     Using automatic symmetry detection.

 Print level on unit LUPRI =   2 is   0
 Print level on unit LUW4  =   2 is   5

@    Restricted, closed shell Hartree-Fock calculation.

 Initial molecular orbitals are obtained according to
 ".MOSTART EHT   " input option

     Wave function specification
     ============================
@    Wave function type        --- HF ---
@    Number of closed shell electrons          10
@    Number of electrons in active shells       0
@    Total charge of the molecule               0

@    Spin multiplicity and 2 M_S                1         0
@    Total number of symmetries                 4 (point group: C2v)
@    Reference state symmetry                   1 (irrep name : A1 )

     Orbital specifications
     ======================
@    Abelian symmetry species          All |    1    2    3    4
@                                          |  A1   B1   B2   A2 
                                       --- |  ---  ---  ---  ---
@    Total number of orbitals           58 |   23   11   17    7
@    Number of basis functions          58 |   23   11   17    7

      ** Automatic occupation of RHF orbitals **

      -- Initial occupation of symmetries is determined from extended Huckel guess.           
      -- Initial occupation of symmetries is :
@    Occupied SCF orbitals               5 |    3    1    1    0

     Maximum number of Fock   iterations      0
     Maximum number of DIIS   iterations     60
     Maximum number of QC-SCF iterations     60
     Threshold for SCF convergence     1.00D-05


 ***********************************************
 ***** DIIS acceleration of SCF iterations *****
 ***********************************************

 C1-DIIS algorithm; max error vectors =    8

 Automatic occupation of symmetries with  10 electrons.

 Iter     Total energy    Error norm  Delta(E)    SCF occupation
 -----------------------------------------------------------------------------

Calculating AOSUPINT

---> (Re)generating AOTWOINT


     ************************************************************************
     ************************** Output from HERINT **************************
     ************************************************************************


***  INFO  GETGAB: GABSO--- not found on AOGABINT. Regenerating.

 Threshold for neglecting two-electron integrals:  1.00D-12
 HERMIT - Number of two-electron integrals written:      350015 ( 23.9% )
 HERMIT - Megabytes written:                              4.120

     (Precalculated AO two-electron integrals are transformed to P-supermatrix elements.
      Threshold for discarding integrals :  1.00D-12 )

@  1  -75.8151542940       2.51D+00  -7.58D+01     3   1   1   0
      Virial theorem: -V/T =      1.993772
@    MULPOP   O      -0.71; H2  _1  0.36; H2  _2  0.36; 
   1  Level shift: doubly occupied orbital energies shifted by -2.00D-01
 -----------------------------------------------------------------------------
@  2  -76.0438628108       4.40D-01  -2.29D-01     3   1   1   0
      Virial theorem: -V/T =      2.000709
@    MULPOP   O      -0.50; H2  _1  0.25; H2  _2  0.25; 
   2  Level shift: doubly occupied orbital energies shifted by -5.00D-02
 -----------------------------------------------------------------------------
@  3  -76.0565373358       1.10D-01  -1.27D-02     3   1   1   0
      Virial theorem: -V/T =      2.000567
@    MULPOP   O      -0.46; H2  _1  0.23; H2  _2  0.23; 
   3  Level shift: doubly occupied orbital energies shifted by -1.25D-02
 -----------------------------------------------------------------------------
@  4  -76.0577211760       2.23D-02  -1.18D-03     3   1   1   0
      Virial theorem: -V/T =      1.999568
@    MULPOP   O      -0.47; H2  _1  0.23; H2  _2  0.23; 
 -----------------------------------------------------------------------------
@  5  -76.0577645244       9.10D-03  -4.33D-05     3   1   1   0
      Virial theorem: -V/T =      1.999952
@    MULPOP   O      -0.47; H2  _1  0.24; H2  _2  0.24; 
 -----------------------------------------------------------------------------
@  6  -76.0577691854       2.01D-03  -4.66D-06     3   1   1   0
      Virial theorem: -V/T =      1.999784
@    MULPOP   O      -0.47; H2  _1  0.24; H2  _2  0.24; 
 -----------------------------------------------------------------------------
@  7  -76.0577695949       2.92D-04  -4.10D-07     3   1   1   0
      Virial theorem: -V/T =      1.999815
@    MULPOP   O      -0.48; H2  _1  0.24; H2  _2  0.24; 
 -----------------------------------------------------------------------------
@  8  -76.0577696069       4.39D-05  -1.19D-08     3   1   1   0
      Virial theorem: -V/T =      1.999816
@    MULPOP   O      -0.48; H2  _1  0.24; H2  _2  0.24; 
 -----------------------------------------------------------------------------
@  9  -76.0577696071       8.28D-06  -2.43D-10     3   1   1   0

@ *** DIIS converged in   9 iterations !
@     Converged SCF energy, gradient:    -76.057769607103    8.28D-06
    - total time used in SIRFCK :              0.00 seconds


 *** SCF orbital energy analysis ***

 Only the 20 lowest virtual orbital energies printed in each symmetry.

 Number of electrons        :   10
 Closed shell orbitals      :    3    1    1    0

 Sym       Hartree-Fock orbital energies

1 A1    -20.55099209    -1.35341471    -0.57794704     0.14424449     0.60659237
          0.66653227     0.81132676     1.11843354     1.58942949     2.17137385
          2.23149369     2.60973730     3.50775144     3.88681067     4.21236565
          4.42829608     5.21164166     5.26848499     6.61350172     7.05779954
          7.17140787     7.48248272    13.16913203

2 B1     -0.50540773     0.78738556     0.96383057     2.03675315     3.37044258
          3.81657292     4.02592433     4.70209076     6.07879069     6.95888170
          7.03441025

3 B2     -0.72203354     0.20517276     0.55367953     0.80491373     1.20268842
          1.54630734     2.03042457     2.97335947     3.66991180     3.90006678
          4.08716312     4.59914433     4.91028379     5.54497512     7.15494965
          7.83486750     8.35243268

4 A2      0.86151361     2.07560315     3.58210462     3.96783412     4.34922462
          6.96825369     7.27573435

    E(LUMO) :     0.14424449 au (symmetry 1)
  - E(HOMO) :    -0.50540773 au (symmetry 2)
  ------------------------------------------
    gap     :     0.64965222 au

 --- Writing SIRIFC interface file

--------------------------------------------------------------------------------


     .--------------------------------------------------.
     | HF-SCF KT IPs [a.u. & eV] from Koopmans' theorem |
     `--------------------------------------------------'


     HF-SCF KT symmetry 1 ( A1 ) in point group C2v -- 3 principal poles with pole strength 1

   ============  ============  ============
      20.550992      1.353415      0.577947
     559.220942     36.828288     15.726739
   ============  ============  ============

     HF-SCF KT symmetry 2 ( B1 ) in point group C2v -- 1 principal poles with pole strength 1

   ============
       0.505408
      13.752844
   ============

     HF-SCF KT symmetry 3 ( B2 ) in point group C2v -- 1 principal poles with pole strength 1

   ============
       0.722034
      19.647532
   ============

@ Summary of HF-SCF KT ionization potentials [eV]:

@ Symmetry 1 (A1 ) :   559.221      36.828      15.727

@ Symmetry 2 (B1 ) :    13.753

@ Symmetry 3 (B2 ) :    19.648

@ Symmetry 4 (A2 ) :  No IPs in this symmetry

  === End of HF-SCF KT output ===
--------------------------------------------------------------------------------


 CPU and wall time for SCF :       0.106       0.106


                       .-----------------------------------.
                       | --- Final results from SIRIUS --- |
                       `-----------------------------------'


@    Spin multiplicity:           1
@    Spatial symmetry:            1 ( irrep  A1  in C2v )
@    Total charge of molecule:    0

@    Final HF energy:             -76.057769607103                 
@    Nuclear repulsion:             9.355730838232
@    Electronic energy:           -85.413500445335

@    Final gradient norm:           0.000008276601

 
     Date and time (Linux)  : Mon May  4 20:16:52 2026
     Host name              : debian                                  

File label for MO orbitals:   4May26   FOCKDIIS

 (Only coefficients > 0.0100 are printed.)

 Molecular orbitals for symmetry species 1  (A1 )
 ------------------------------------------------

    Orbital         1        2        3        4        5        6        7
   1 O   :1s     0.9993  -0.0095  -0.0026   0.0276   0.0280   0.0443   0.0205
   2 O   :1s    -0.0009   0.8613  -0.3070  -0.1869   0.3520   0.1282   0.2353
   3 O   :1s     0.0010  -0.0066  -0.0035  -0.0111  -0.0340  -0.0596  -0.0121
   4 O   :1s    -0.0008  -0.0465  -0.1615  -1.5587   1.0353   4.7310   0.3387
   5 O   :2pz    0.0049   0.1192   0.8141  -0.1913   0.1890  -0.6461   0.1523
   6 O   :2pz   -0.0038   0.0063  -0.0152  -0.0997   0.0630   0.2183   0.0735
   7 O   :2pz   -0.0018  -0.0275   0.0056  -0.4021   0.7801   2.8811   1.2274
   8 O   :3d0    0.0000   0.0009   0.0056  -0.0009   0.0066  -0.0169  -0.0366
   9 O   :3d2+  -0.0001  -0.0040  -0.0032  -0.0024   0.0220   0.0206  -0.0104
  10 O   :3d0   -0.0002   0.0026   0.0180  -0.0070  -0.0144   0.0831   0.1544
  11 O   :3d2+   0.0005  -0.0078  -0.0057   0.0552  -0.0690  -0.2785   0.0963
  12 O   :4f0   -0.0000  -0.0009   0.0006   0.0045  -0.0122  -0.0099   0.0179
  13 O   :4f2+   0.0001  -0.0029  -0.0032   0.0086  -0.0209  -0.0285  -0.0006
  14 H2  :1s     0.0022   0.3871   0.3577   0.1096  -0.3391   0.1447   0.0403
  15 H2  :1s    -0.0002  -0.1220  -0.0447   0.2595  -1.4486  -2.3808  -0.8927
  16 H2  :1s    -0.0011  -0.1424  -0.1135   0.8907   0.6549  -0.5722   0.2744
  17 H2  :2py   -0.0002  -0.0110  -0.0098   0.0054   0.0362   0.0224  -0.0220
  18 H2  :2pz   -0.0001  -0.0075   0.0012   0.0006   0.0219   0.0161   0.0346
  19 H2  :2py   -0.0004  -0.0097  -0.0208  -0.1570  -0.1420   1.0020   0.4747
  20 H2  :2pz   -0.0003  -0.0046   0.0132  -0.1151   0.1253   0.5769  -0.7535
  21 H2  :3d1-  -0.0002   0.0021   0.0006   0.0178  -0.0170  -0.0599   0.0335
  22 H2  :3d0   -0.0001  -0.0001  -0.0024   0.0037  -0.0154   0.0061   0.0477
  23 H2  :3d2+   0.0000  -0.0015  -0.0034  -0.0086   0.0116   0.0518   0.0316

    Orbital         8        9       10       11       12       13
   1 O   :1s     0.2312  -0.3331   0.2375  -0.1693   0.2181  -0.0228
   2 O   :1s     1.3133  -1.5975   0.9374  -0.6438   0.6844  -0.0975
   3 O   :1s     0.0222   0.0006  -0.0796   0.1109  -0.1080   0.0248
   4 O   :1s    -7.7293  -1.2093   2.5613  -6.6872   0.0069  -0.8600
   5 O   :2pz   -0.1554  -0.4641   0.1387  -0.3226  -0.5676   0.1947
   6 O   :2pz   -1.0114  -0.3397   0.3962  -0.7759   0.6000  -0.0909
   7 O   :2pz   -1.6621  -0.0877   0.3649  -2.6221   0.4877  -0.3399
   8 O   :3d0   -0.0004  -0.0022   0.0095   0.0022  -0.0033  -0.0350
   9 O   :3d2+  -0.0086  -0.0113   0.0009  -0.0009  -0.0260  -0.0279
  10 O   :3d0    0.0526  -0.0117  -1.0158  -0.9136   0.3115   0.4500
  11 O   :3d2+   0.3052  -0.3173  -0.9477   1.0997   0.4820  -0.1074
  12 O   :4f0    0.0422  -0.0320  -0.0513   0.0221  -0.0514  -0.0293
  13 O   :4f2+   0.0768  -0.0631  -0.0674   0.0747  -0.1169   0.0926
  14 H2  :1s    -0.0771   0.4642   1.1962  -0.8554   3.8271  -1.2770
  15 H2  :1s     3.1019   0.6197  -2.6884   4.7095  -3.1779   1.4298
  16 H2  :1s     0.6469   0.1012  -0.4656   0.4915  -1.1218   0.4382
  17 H2  :2py   -0.0833   0.1447   0.1085  -0.0552   0.1154  -0.0928
  18 H2  :2pz   -0.0864   0.1079  -0.0310  -0.0608   0.1092  -0.0820
  19 H2  :2py   -1.2046  -1.0448   0.3672  -1.5828   0.1941  -0.1025
  20 H2  :2pz   -0.7041  -0.7730   1.0808  -0.6612  -0.1076  -0.1713
  21 H2  :3d1-   0.1494  -0.0458  -0.0617   0.1029   0.0840   0.3254
  22 H2  :3d0    0.0351  -0.0008  -0.0650  -0.0216  -0.0359  -0.1190
  23 H2  :3d2+  -0.0995   0.0093   0.0087  -0.0601   0.1565   0.6091

 Molecular orbitals for symmetry species 2  (B1 )
 ------------------------------------------------

    Orbital         1        2        3        4        5        6        7
   1 O   :2px    0.9216  -0.6648  -0.0931  -0.0082   0.2263   2.0257   1.4557
   2 O   :2px   -0.0088  -0.4417  -0.0667   0.0754  -0.1672  -1.7099  -0.8730
   3 O   :2px    0.0651   1.4452  -1.0854   0.7351  -0.2396  -0.5230   0.2620
   4 O   :3d1+   0.0053  -0.0098   0.0240  -0.0150  -0.0202  -0.0429  -0.0041
   5 O   :3d1+   0.0180   0.0399  -0.0057   1.1784  -0.3755   0.2869   0.4152
   6 O   :4f1+   0.0015   0.0031  -0.0056   0.0140   0.0873  -0.0814   0.0695
   7 O   :4f3+  -0.0041  -0.0077   0.0188  -0.0061   0.0790   0.0552  -0.1451
   8 H2  :2px    0.0106  -0.0097  -0.0729   0.0363  -0.2117  -0.5993   0.5220
   9 H2  :2px    0.0313  -0.0335   1.0255  -0.6944   0.2373   0.3206  -0.7149
  10 H2  :3d2-  -0.0042   0.0210  -0.0420  -0.0159  -0.3714   0.2125   0.4725
  11 H2  :3d1+  -0.0029   0.0134  -0.0032   0.0784   0.5285  -0.0867   0.4146

    Orbital         8        9       10       11
   1 O   :2px    1.9078  -0.1520  -0.0088  -0.9673
   2 O   :2px   -2.4280   0.2327  -0.0024   1.6276
   3 O   :2px   -0.5379   0.0396  -0.2436   0.5583
   4 O   :3d1+   0.0887   0.1558   1.1786  -0.0186
   5 O   :3d1+  -0.6741   0.1453  -0.7621   0.8100
   6 O   :4f1+   0.1813   0.9635  -0.1838   0.3843
   7 O   :4f3+  -0.2157   0.3823  -0.0086  -1.1418
   8 H2  :2px    0.2145  -0.0679  -0.0228  -0.5116
   9 H2  :2px    0.3015  -0.0141   0.2313  -0.3750
  10 H2  :3d2-  -0.6105   0.2809  -0.0560   0.5912
  11 H2  :3d1+  -0.3279  -0.2158   0.0984   0.4421

 Molecular orbitals for symmetry species 3  (B2 )
 ------------------------------------------------

    Orbital         1        2        3        4        5        6        7
   1 O   :2py    0.7340  -0.3412  -0.2559   0.7194   0.0598   0.5239  -0.0364
   2 O   :2py   -0.0229  -0.0343  -0.1775  -0.4110   0.1146   1.0330  -1.9477
   3 O   :2py   -0.0939  -0.7439  -1.3056  -3.2532   1.6816   0.7726  -2.8695
   4 O   :3d1-   0.0131   0.0027   0.0273   0.0220  -0.0016   0.0033  -0.0237
   5 O   :3d1-   0.0214  -0.0599  -0.1619  -0.4492   0.0576  -0.0845  -1.7157
   6 O   :4f3-  -0.0033   0.0026   0.0172   0.0200  -0.0118   0.0043   0.0894
   7 O   :4f1-  -0.0000  -0.0006  -0.0163  -0.0246  -0.0058  -0.0086  -0.1137
   8 H2  :1s     0.6089   0.0593   0.4156  -0.1043   0.0387  -0.5626  -1.6378
   9 H2  :1s    -0.0847   0.1244   1.4435   1.7659  -0.9422  -1.2878   5.5478
  10 H2  :1s    -0.1753   1.7717  -0.6737   1.5577  -0.0889  -0.5439   0.8909
  11 H2  :2py   -0.0105   0.0119  -0.0531  -0.0458   0.0691  -0.0690  -0.1850
  12 H2  :2pz   -0.0134   0.0113  -0.0324  -0.0324  -0.0591  -0.0565  -0.1782
  13 H2  :2py   -0.0207  -0.1405  -0.0754  -0.9536  -0.6626   1.4933  -1.8187
  14 H2  :2pz   -0.0241  -0.1140   0.0082  -0.7680   1.0378   1.1173  -1.2675
  15 H2  :3d1-   0.0062   0.0093   0.0320   0.0897  -0.0088  -0.0920   0.2632
  16 H2  :3d0    0.0018  -0.0010  -0.0071  -0.0023  -0.0139   0.0079  -0.0184
  17 H2  :3d2+  -0.0036  -0.0092  -0.0180  -0.0626  -0.0011   0.0580  -0.1626

    Orbital         8        9       10       11
   1 O   :2py   -0.8779   0.0750  -0.1778   1.5709
   2 O   :2py    0.9273   0.0083   0.2222  -2.5415
   3 O   :2py   -0.2052   0.0073   0.9802  -1.2826
   4 O   :3d1-   0.0091   0.0631  -0.0171  -0.1734
   5 O   :3d1-  -0.6659   0.3314   0.4574   0.1958
   6 O   :4f3-  -0.1057  -0.0225  -0.0697   0.0496
   7 O   :4f1-   0.0851   0.0323  -0.1584  -0.0149
   8 H2  :1s     3.5158  -1.3887  -0.4224  -1.0145
   9 H2  :1s    -2.4451   0.8029  -0.4386   2.3417
  10 H2  :1s    -0.7820   0.3116   0.0760   0.7377
  11 H2  :2py    0.1802  -0.3055   0.5202   0.3408
  12 H2  :2pz    0.0990   0.0061  -0.6243   0.4068
  13 H2  :2py   -0.0483   0.3595  -0.2410  -1.2153
  14 H2  :2pz    0.0392   0.0173   0.6603  -1.1458
  15 H2  :3d1-  -0.1430  -0.4252  -0.0071   0.4497
  16 H2  :3d0    0.1346   0.4903   0.1960   0.3564
  17 H2  :3d2+  -0.1200  -0.1566   0.0060  -0.3474

 Molecular orbitals for symmetry species 4  (A2 )
 ------------------------------------------------

    Orbital         1        2        3        4        5        6        7
   1 O   :3d2-   0.0287  -0.0154  -0.0491  -0.0143   0.1145   1.1906  -0.0723
   2 O   :3d2-  -0.0450   1.2698  -0.1030   0.0643  -1.1386  -0.6824   1.0975
   3 O   :4f2-  -0.0177   0.0269  -0.1150  -0.1827   0.0543  -0.0090   1.3197
   4 H2  :2px   -0.0581   0.0540  -0.4637  -0.6896   0.1315  -0.0281  -0.5601
   5 H2  :2px    0.8563  -0.6384   0.3011   0.5132   0.4910   0.1693  -0.3415
   6 H2  :3d2-  -0.0166   0.0687   0.3675  -0.4873  -0.5898   0.0992   0.5726
   7 H2  :3d1+  -0.0282  -0.0047  -0.4479   0.1536  -0.7370   0.0127   0.4484

  Total CPU  time used in SIRIUS :   0.11 seconds
  Total wall time used in SIRIUS :   0.11 seconds

 
     Date and time (Linux)  : Mon May  4 20:16:52 2026
     Host name              : debian                                  


                     .---------------------------------------.
                     | End of Wave Function Section (SIRIUS) |
                     `---------------------------------------'

  Total CPU  time used in DALTON:   0.16 seconds
  Total wall time used in DALTON:   0.18 seconds

 
     Date and time (Linux)  : Mon May  4 20:16:52 2026
     Host name              : debian                                  
