

     ************************************************************************
     *************** Dalton - An Electronic Structure Program ***************
     ************************************************************************

    This is output from DALTON release Dalton2025.0-dev (2025)
         ( Web site: http://daltonprogram.org )

   ----------------------------------------------------------------------------

    NOTE:
     
    Dalton is an experimental code for the evaluation of molecular
    properties using (MC)SCF, DFT, CI, and CC wave functions.
    The authors accept no responsibility for the performance of
    the code or for the correctness of the results.
     
    The code (in whole or part) is provided under a licence and
    is not to be reproduced for further distribution without
    the written permission of the authors or their representatives.
     
    See the home page "http://daltonprogram.org" for further information.
     
    If results obtained with this code are published,
    the appropriate citations would be both of:
     
       K. Aidas, C. Angeli, K. L. Bak, V. Bakken,
       R. Bast, L. Boman, O. Christiansen, R. Cimiraglia,
       S. Coriani, P. Dahle, E. K. Dalskov, U. Ekstroem,
       T. Enevoldsen, J. J. Eriksen, P. Ettenhuber, B. Fernandez,
       L. Ferrighi, H. Fliegl, L. Frediani, K. Hald, A. Halkier,
       C. Haettig, H. Heiberg, T. Helgaker, A. C. Hennum,
       H. Hettema, E. Hjertenaes, S. Hoest, I.-M. Hoeyvik,
       M. F. Iozzi, B. Jansik, H. J. Aa. Jensen, D. Jonsson,
       P. Joergensen, J. Kauczor, S. Kirpekar,
       T. Kjaergaard, W. Klopper, S. Knecht, R. Kobayashi, H. Koch,
       J. Kongsted, A. Krapp, K. Kristensen, A. Ligabue,
       O. B. Lutnaes, J. I. Melo, K. V. Mikkelsen, R. H. Myhre,
       C. Neiss, C. B. Nielsen, P. Norman, J. Olsen,
       J. M. H. Olsen, A. Osted, M. J. Packer, F. Pawlowski,
       T. B. Pedersen, P. F. Provasi, S. Reine, Z. Rinkevicius,
       T. A. Ruden, K. Ruud, V. Rybkin, P. Salek, C. C. M. Samson,
       A. Sanchez de Meras, T. Saue, S. P. A. Sauer,
       B. Schimmelpfennig, K. Sneskov, A. H. Steindal,
       K. O. Sylvester-Hvid, P. R. Taylor, A. M. Teale,
       E. I. Tellgren, D. P. Tew, A. J. Thorvaldsen, L. Thoegersen,
       O. Vahtras, M. A. Watson, D. J. D. Wilson, M. Ziolkowski
       and H. Agren,
       "The Dalton quantum chemistry program system",
       WIREs Comput. Mol. Sci. 2014, 4:269-284 (doi: 10.1002/wcms.1172)
     
    and
     
       Dalton, a molecular electronic structure program,
       Release Dalton2025.0-dev (2025), see http://daltonprogram.org
   ----------------------------------------------------------------------------

    Authors in alphabetical order (Major contribution(s) in parenthesis):

  Kestutis Aidas,              Vilnius University,        Lithuania   (QM/MM)
  Celestino Angeli,            University of Ferrara,     Italy       (NEVPT2)
  Juan J. Aucar,               Northeast National UniversiArgentina   (LRESC, Relativistic Effects on NMR Shieldings and EFG)
  Keld L. Bak,                 UNI-C,                     Denmark     (AOSOPPA, non-adiabatic coupling, magnetic properties)
  Vebjoern Bakken,             University of Oslo,        Norway      (DALTON; geometry optimizer, symmetry detection)
  Radovan Bast,                UiT The Arctic U. of NorwayNorway      (DALTON installation and execution frameworks)
  Pablo Baudin,                University of Valencia,    Spain       (Cholesky excitation energies)
  Linus Boman,                 NTNU,                      Norway      (Cholesky decomposition and subsystems)
  Bruno N. Cabral Tenorio,     Technical Univ. of Denmark,Denmark     (Lanczos-based CC methods)
  Ove Christiansen,            Aarhus University,         Denmark     (CC module)
  Renzo Cimiraglia,            University of Ferrara,     Italy       (NEVPT2)
  Sonia Coriani,               Technical Univ. of Denmark,Denmark     (CC and RESPONS modules)
  Janusz Cukras,               University of Warsaw,      Poland      (MChD in RESPONS)
  Paal Dahle,                  University of Oslo,        Norway      (Parallelization)
  Erik K. Dalskov,             UNI-C,                     Denmark     (SOPPA)
  Thomas Enevoldsen,           Univ. of Southern Denmark, Denmark     (SOPPA)
  Janus J. Eriksen,            Aarhus University,         Denmark     (Polarizable embedding, TDA)
  Rasmus Faber,                Technical Univ. of Denmark,Denmark     (Vib.avg. NMR w. SOPPA, parallel AO-SOPPA, CVS-CC and EOMCC)
  Tobias Fahleson,             KTH Stockholm,             Sweden      (Damped cubic response)
  Berta Fernandez,             U. of Santiago de CompostelSpain       (Doublet spin, ESR in RESPONS)
  Lara Ferrighi,               Aarhus University,         Denmark     (PCM Cubic response)
  Heike Fliegl,                University of Oslo,        Norway      (CCSD(R12))
  Luca Frediani,               UiT The Arctic U. of NorwayNorway      (PCM)
  Emmanuel Fromager,           Univ. Strasbourg,          France      (MC-srDFT)
  Bin Gao,                     UiT The Arctic U. of NorwayNorway      (Gen1Int library)
  Andre S. P. Gomes,           CNRS/Universite de Lille,  France      (Frozen density embedding)
  Christof Haettig,            Ruhr-University Bochum,    Germany     (CC module)
  Kasper Hald,                 Aarhus University,         Denmark     (CC module)
  Asger Halkier,               Aarhus University,         Denmark     (CC module)
  Frederik Beyer Hansen,       University of Copenhagen,  Denmark     (Parallel AO-SOPPA)
  Erik D. Hedegaard,           Univ. of Southern Denmark, Denmark     (Polarizable embedding, QM/MM, and MC-srDFT)
  Hanne Heiberg,               University of Oslo,        Norway      (Geometry analysis, selected one-electron integrals)
  Trygve Helgaker,             University of Oslo,        Norway      (DALTON; ABACUS, ERI, DFT modules, London, and much more)
  Alf Christian Hennum,        University of Oslo,        Norway      (Parity violation)
  Hinne Hettema,               University of Auckland,    New Zealand (Quadratic response in RESPONS; SIRIUS supersymmetry)
  Andreas E. Hillers-Bendtsen, University of Copenhagen,  Denmark     (MP3)
  Eirik Hjertenaes,            NTNU,                      Norway      (Cholesky decomposition)
  Nicolai Machholdt Hoeyer,    Aarhus University,         Denmark     (MP3)
  Pi A. B. Haase,              University of Copenhagen,  Denmark     (Triplet AO-SOPPA)
  Maria Francesca Iozzi,       University of Oslo,        Norway      (RPA)
  Christoph Jacob,             TU Braunschweig            Germany     (Frozen density embedding)
  Brano Jansik,                Technical Univ. of Ostrava Czech Rep.  (DFT cubic response)
  Hans Joergen Aa. Jensen,     Univ. of Southern Denmark, Denmark     (DALTON; SIRIUS, RESPONS, ABACUS, MC-srDFT, and much more)
  Dan Jonsson,                 UiT The Arctic U. of NorwayNorway      (Cubic response in RESPONS module)
  Poul Joergensen,             Aarhus University,         Denmark     (RESPONS, ABACUS, and CC modules)
  Maciej Kaminski,             University of Warsaw,      Poland      (CPPh in RESPONS)
  Joanna Kauczor,              Linkoeping University,     Sweden      (Complex polarization propagator (CPP) module)
  Sheela Kirpekar,             Univ. of Southern Denmark, Denmark     (Mass-velocity & Darwin integrals)
  Frederik Oersted Kjeldal,    Technical Univ. of Denmark,Denmark     (MP3)
  Erik Kjellgren,              Univ. of Southern Denmark, Denmark     (MC-srDFT)
  Wim Klopper,                 KIT Karlsruhe,             Germany     (R12 code in CC, SIRIUS, and ABACUS modules)
  Stefan Knecht,               ETH Zurich,                Switzerland (Parallel CI and MCSCF, MC-srDFT)
  Rika Kobayashi,              Australian National Univ., Australia   (DIIS in CC, London in MCSCF)
  Henrik Koch,                 NTNU,                      Norway      (CC module, Cholesky decomposition)
  Jacob Kongsted,              Univ. of Southern Denmark, Denmark     (Polarizable embedding, polarizable density embedding, QM/MM)
  Andrea Ligabue,              University of Modena,      Italy       (CTOCD, AOSOPPA)
  Nanna H. List,               Univ. of Southern Denmark, Denmark     (Polarizable embedding)
  Ola B. Lutnaes,              University of Oslo,        Norway      (DFT Hessian)
  Juan I. Melo,                University of Buenos Aires,Argentina   (LRESC, Relativistic Effects on NMR Shieldings)
  Kurt V. Mikkelsen,           University of Copenhagen,  Denmark     (MC-SCRF, QM/MM, and MP3)
  Rolf H. Myhre,               NTNU,                      Norway      (Subsystems and CC3)
  Christian Neiss,             Univ. Erlangen-Nuernberg,  Germany     (CCSD(R12))
  Christian B. Nielsen,        University of Copenhagen,  Denmark     (QM/MM)
  Patrick Norman,              KTH Stockholm,             Sweden      (Cubic response and complex frequency response in RESPONS)
  Jeppe Olsen,                 Aarhus University,         Denmark     (SIRIUS CI/density modules)
  Jogvan Magnus H. Olsen,      Aarhus University,         Denmark     (Polarizable embedding and polarizable density embedding)
  Anders Osted,                Copenhagen University,     Denmark     (QM/MM)
  Martin J. Packer,            University of Sheffield,   UK          (SOPPA)
  Filip Pawlowski,             Kazimierz Wielki UniversityPoland      (CC3)
  Morten N. Pedersen,          Univ. of Southern Denmark, Denmark     (Polarizable embedding)
  Thomas B. Pedersen,          University of Oslo,        Norway      (Cholesky decomposition)
  Patricio F. Provasi,         University of Northeastern,Argentina   (Analysis of coupling constants in localized orbitals)
  Peter Reinholdt,             Univ. of Southern Denmark, Denmark     (Polarizable embedding and polarizable density embedding)
  Zilvinas Rinkevicius,        KTH Stockholm,             Sweden      (open-shell DFT, ESR)
  Elias Rudberg,               KTH Stockholm,             Sweden      (DFT grid and basis info)
  Torgeir A. Ruden,            University of Oslo,        Norway      (Numerical derivatives in ABACUS)
  Kenneth Ruud,                UiT The Arctic U. of NorwayNorway      (DALTON; ABACUS magnetic properties and much more)
  Pawel Salek,                 KTH Stockholm,             Sweden      (DALTON; DFT code)
  Claire C. M. Samson,         University of Karlsruhe    Germany     (Boys localization, r12 integrals in ERI)
  Alfredo Sanchez de Meras,    University of Valencia,    Spain       (CC module, Cholesky decomposition)
  Trond Saue,                  Paul Sabatier University,  France      (direct Fock matrix construction)
  Stephan P. A. Sauer,         University of Copenhagen,  Denmark     (SOPPA(CCSD), SOPPA prop., AOSOPPA, vibrational g-factors)
  Bernd Schimmelpfennig,       Forschungszentrum KarlsruheGermany     (AMFI module)
  Anna K. Schnack-Petersen,    University of Copenhagen,  Denmark     (RPA(D) and HRPA(D) properties in AOSOPPA)
  Kristian Sneskov,            Aarhus University,         Denmark     (Polarizable embedding, QM/MM)
  Arnfinn H. Steindal,         UiT The Arctic U. of NorwayNorway      (parallel QM/MM, polarizable embedding)
  Casper Steinmann,            Aalborg University,        Denmark     (QFIT, polarizable embedding)
  K. O. Sylvester-Hvid,        University of Copenhagen,  Denmark     (MC-SCRF)
  Peter R. Taylor,             VLSCI/Univ. of Melbourne,  Australia   (Symmetry handling ABACUS, integral transformation)
  Andrew M. Teale,             University of Nottingham,  England     (DFT-AC, DFT-D)
  David P. Tew,                University of Bristol,     England     (CCSD(R12))
  Julien Toulouse,             Sorbonne Univ.,            France      (MC-srDFT)
  Olav Vahtras,                KTH Stockholm,             Sweden      (Triplet response, spin-orbit, ESR, TDDFT, open-shell DFT)
  Lucas Visscher,              Vrije Universiteit AmsterdaNetherlands (Frozen density embedding)
  David J. Wilson,             La Trobe University,       Australia   (DFT Hessian and DFT magnetizabilities)
  Luna Zamok,                  University of Copenhagen,  Denmark     (Block Lanczos RPA solver in SOPPA module)
  Hans Agren,                  KTH Stockholm,             Sweden      (SIRIUS module, RESPONS, MC-SCRF solvation)
 --------------------------------------------------------------------------------

     Date and time (Linux)  : Mon May  4 22:34:49 2026
     Host name              : debian                                  

 * Work memory size             :    64000000 =  488.28 megabytes.

 * Directories for basis set searches:
   1) /home/vdwv/DIPLOM_ITMO/CALCULATIONS_AND_SOFTS/softwares/Dalton_Shenanigans/dalton/dalton/build
   2) /home/vdwv/DIPLOM_ITMO/CALCULATIONS_AND_SOFTS/softwares/Dalton_Shenanigans/dalton/dalton/build/basis


Compilation information
-----------------------

 Who compiled             | vdwv
 Host                     | debian
 System                   | Linux-6.12.73+deb13-amd64
 CMake generator          | Unix Makefiles
 Processor                | x86_64
 64-bit integers          | OFF
 MPI                      | OFF
 Fortran compiler         | /usr/bin/gfortran
 Fortran compiler version | GNU Fortran (Debian 14.2.0-19) 14.2.0
 C compiler               | /usr/bin/gcc
 C compiler version       | gcc (Debian 14.2.0-19) 14.2.0
 C++ compiler             | /usr/bin/g++
 C++ compiler version     | g++ (Debian 14.2.0-19) 14.2.0
 BLAS                     | /opt/intel/oneapi/mkl/2025.3/lib/intel64/libmkl_gf
                          | _lp64.so;/opt/intel/oneapi/mkl/2025.3/lib/intel64/
                          | libmkl_sequential.so;/opt/intel/oneapi/mkl/2025.3/
                          | lib/intel64/libmkl_core.so;/usr/lib/x86_64-linux-g
                          | nu/libpthread.a;/usr/lib/x86_64-linux-gnu/libm.so
 LAPACK                   | /opt/intel/oneapi/mkl/2025.3/lib/intel64/libmkl_la
                          | pack95_lp64.a;/opt/intel/oneapi/mkl/2025.3/lib/int
                          | el64/libmkl_gf_lp64.so
 Static linking           | OFF
 Last Git revision        | 1892235f9264b9be21ec2fefe6e0081d659ab244
 Git branch               | master
 Configuration time       | 2026-05-04 17:50:26.788788

 * Sequential calculation.


   Content of the .dal input file
 ----------------------------------

BASIS
cc-pVTZ
Acetic acid CH3COOH using the cc-pVTZ basis
Using automatic symmetry detection
AtomTypes=3 Angstrom
Charge=6.0 Atoms=2
C1    1.021     -0.943      0.000
C2    0.000      0.155      0.000
Charge=8.0 Atoms=2
O3    0.235      1.314      0.000
O7   -1.242     -0.318      0.000
Charge=1.0 Atoms=4
H4    2.011     -0.517      0.000
H5    0.881     -1.566      0.880
H6    0.881     -1.566     -0.880
H8   -1.842      0.413      0.000

**DALTON INPUT
.RUN WAVE FUN
**WAVE FUN
.HF
**END OF


       *******************************************************************
       *********** Output from DALTON general input processing ***********
       *******************************************************************

 --------------------------------------------------------------------------------
   Overall default print level:    0
   Print level for DALTON.STAT:    1

    HERMIT 1- and 2-electron integral sections will be executed
    "Old" integral transformation used (limited to max 255 basis functions)
    Wave function sections will be executed (SIRIUS module)
 --------------------------------------------------------------------------------


   ****************************************************************************
   *************** Output of molecule and basis set information ***************
   ****************************************************************************


    The two title cards from your ".mol" input:
    --------------------------------------------------------------------------------
 1: Acetic acid CH3COOH using the cc-pVTZ basis
 2: Using automatic symmetry detection
    --------------------------------------------------------------------------------

  Coordinates are entered in Angstrom and converted to atomic units.
          - Conversion factor : 1 bohr = 0.52917721080 A

  Atomic type no.    1
  --------------------
  Nuclear charge:   6.00000
  Number of symmetry independent centers:    2
  Number of basis sets to read;    2
  Basis set file used for this atomic type with Z =   6 :
     "/home/vdwv/DIPLOM_ITMO/CALCULATIONS_AND_SOFTS/softwares/Dalton_Shenanigans/dalton/dalton/build/basis/cc-pVTZ"

  Atomic type no.    2
  --------------------
  Nuclear charge:   8.00000
  Number of symmetry independent centers:    2
  Number of basis sets to read;    2
  Basis set file used for this atomic type with Z =   8 :
     "/home/vdwv/DIPLOM_ITMO/CALCULATIONS_AND_SOFTS/softwares/Dalton_Shenanigans/dalton/dalton/build/basis/cc-pVTZ"

  Atomic type no.    3
  --------------------
  Nuclear charge:   1.00000
  Number of symmetry independent centers:    4
  Number of basis sets to read;    2
  Basis set file used for this atomic type with Z =   1 :
     "/home/vdwv/DIPLOM_ITMO/CALCULATIONS_AND_SOFTS/softwares/Dalton_Shenanigans/dalton/dalton/build/basis/cc-pVTZ"


                      SYMADD: Addition of symmetry requested
                      --------------------------------------

 Symmetry test threshold:  5.00E-06

@  The molecule has been centered at center of mass and rotated
@  so the principal axes of inertia are along coordinate axes.

 Symmetry class found: C(s)           

 Symmetry Independent Centres             
 ----------------------------
O7     8 :     -1.29750192    -2.00986561     0.00000000  Isotope  1
O3     8 :     -1.14814756     2.14697628     0.00000000  Isotope  1
C2     6 :     -0.07748979     0.18538317     0.00000000  Isotope  1
C1     6 :      2.73479062    -0.15957088     0.00000000  Isotope  1
H8     1 :     -3.05451525    -1.68317729     0.00000000  Isotope  1
H5     1 :      3.29052618    -1.23063796     1.66295899  Isotope  1
H4     1 :      3.64767036     1.66106466     0.00000000  Isotope  1

 The following symmetry element was found:   Z        


                         SYMGRP: Point group information
                         -------------------------------

@    Full point group is: C(s)           
@    Represented as:      Cs 

@  * The irrep name for each symmetry:    1: A'     2: A" 

   * The point group was generated by:

      Reflection in the xy-plane

   * Group multiplication table

        |  E   Oxy
   -----+----------
     E  |  E   Oxy
    Oxy | Oxy   E 

   * Character table

        |  E   Oxy
   -----+----------
    A'  |   1    1
    A"  |   1   -1

   * Direct product table

        | A'   A" 
   -----+----------
    A'  | A'   A" 
    A"  | A"   A' 


                                 Isotopic Masses
                                 ---------------

                           C1         12.000000
                           C2         12.000000
                           O3         15.994915
                           O7         15.994915
                           H4          1.007825
                           H5  _1      1.007825
                           H5  _2      1.007825
                           H8          1.007825

                       Total mass:    60.021130 amu
                       Natural abundance:  97.285 %

 Center-of-mass coordinates (a.u.):    0.000000   -0.000000    0.000000
 Center-of-mass coordinates (Angs):    0.000000   -0.000000    0.000000


  Atoms and basis sets
  --------------------

  Number of atom types :    3
  Total number of atoms:    8

  Basis set used is "cc-pVTZ" from the basis set library.

  label    atoms   charge   prim   cont     basis
  ----------------------------------------------------------------------
  C2          2    6.0000    42    30      [10s5p2d1f|4s3p2d1f]                               
  O7          2    8.0000    42    30      [10s5p2d1f|4s3p2d1f]                               
  H8          4    1.0000    16    14      [5s2p1d|3s2p1d]                                    
  ----------------------------------------------------------------------
  total:      8   32.0000   232   176
  ----------------------------------------------------------------------
  Spherical harmonic basis used.

  Threshold for neglecting AO integrals:  1.00D-12


  Cartesian Coordinates (bohr)
  ----------------------------

  Total number of coordinates:   24
  C1      :     1  x   2.7347906208    2  y  -0.1595708829    3  z   0.0000000000
  C2      :     4  x  -0.0774897935    5  y   0.1853831741    6  z   0.0000000000
  O3      :     7  x  -1.1481475644    8  y   2.1469762831    9  z   0.0000000000
  O7      :    10  x  -1.2975019172   11  y  -2.0098656103   12  z   0.0000000000
  H4      :    13  x   3.6476703573   14  y   1.6610646613   15  z   0.0000000000
  H5  / 1 :    16  x   3.2905261844   17  y  -1.2306379558   18  z   1.6629589900
  H5  / 2 :    19  x   3.2905261844   20  y  -1.2306379558   21  z  -1.6629589900
  H8      :    22  x  -3.0545152493   23  y  -1.6831772867   24  z   0.0000000000


  Cartesian Coordinates (xyz format; angstrom)
  --------------------------------------------

    8

  C        1.4471888728           -0.0844412748            0.0000000000
  C       -0.0410058328            0.0981005510            0.0000000000
  O       -0.6075735257            1.1361309211            0.0000000000
  O       -0.6866084455           -1.0635750777            0.0000000000
  H        1.9302640256            0.8789975644            0.0000000000
  H        1.7412714683           -0.6512255609            0.8800000000
  H        1.7412714683           -0.6512255609           -0.8800000000
  H       -1.6163798600           -0.8906990618            0.0000000000


  Symmetry Coordinates
  --------------------

  Number of coordinates in each symmetry:    15    9

  Symmetry  A'  ( 1)

    1   C1    x    1
    2   C1    y    2
    3   C2    x    4
    4   C2    y    5
    5   O3    x    7
    6   O3    y    8
    7   O7    x   10
    8   O7    y   11
    9   H4    x   13
   10   H4    y   14
   11   H5    x    [ 16  +   19 ]/2
   12   H5    y    [ 17  +   20 ]/2
   13   H5    z    [ 18  -   21 ]/2
   14   H8    x   22
   15   H8    y   23

  Symmetry  A"  ( 2)

   16   C1    z    3
   17   C2    z    6
   18   O3    z    9
   19   O7    z   12
   20   H4    z   15
   21   H5    x    [ 16  -   19 ]/2
   22   H5    y    [ 17  -   20 ]/2
   23   H5    z    [ 18  +   21 ]/2
   24   H8    z   24


   Interatomic separations (in Angstrom):
   --------------------------------------

            C1          C2          O3          O7          H4          H5  _1
            ------      ------      ------      ------      ------      ------
 C1    :    0.000000
 C2    :    1.499348    0.000000
 O3    :    2.389947    1.182584    0.000000
 O7    :    2.347721    1.329020    2.201125    0.000000
 H4    :    1.077764    2.120308    2.550831    3.259081    0.000000
 H5  _1:    1.087258    2.124242    3.079954    2.615154    1.775303    0.000000
 H5  _2:    1.087258    2.124242    3.079954    2.615154    1.775303    1.760000
 H8    :    3.167887    1.859981    2.264008    0.945707    3.963648    3.479306

            H5  _2      H8    
            ------      ------
 H5  _2:    0.000000
 H8    :    3.479306    0.000000


  Max    interatomic separation is    3.9636 Angstrom (    7.4902 Bohr)
  between atoms    8 and    5, "H8    " and "H4    ".

  Min HX interatomic separation is    0.9457 Angstrom (    1.7871 Bohr)

  Min YX interatomic separation is    1.1826 Angstrom (    2.2348 Bohr)


  Bond distances (Angstrom):
  --------------------------

                  atom 1     atom 2       distance
                  ------     ------       --------
  bond distance:  C2         C1           1.499348
  bond distance:  O3         C2           1.182584
  bond distance:  O7         C2           1.329020
  bond distance:  H4         C1           1.077764
  bond distance:  H5  _1     C1           1.087258
  bond distance:  H5  _2     C1           1.087258
  bond distance:  H8         O7           0.945707


  Bond angles (degrees):
  ----------------------

                  atom 1     atom 2     atom 3         angle
                  ------     ------     ------         -----
  bond angle:     C2         C1         H4           109.637
  bond angle:     C2         C1         H5  _1       109.386
  bond angle:     C2         C1         H5  _2       109.386
  bond angle:     H4         C1         H5  _1       110.167
  bond angle:     H4         C1         H5  _2       110.167
  bond angle:     H5  _1     C1         H5  _2       108.070
  bond angle:     C1         C2         O3           125.619
  bond angle:     C1         C2         O7           112.070
  bond angle:     O3         C2         O7           122.311
  bond angle:     C2         O7         H8           108.530




 Principal moments of inertia (u*A**2) and principal axes
 --------------------------------------------------------

   IA      42.934481          1.000000   -0.000000    0.000000
   IB      52.658025          0.000000    1.000000    0.000000
   IC      92.470667          0.000000    0.000000    1.000000


 Rotational constants
 --------------------

               A                   B                   C

          11770.9356           9597.3787           5465.2900 MHz
            0.392636            0.320134            0.182302 cm-1


@  Nuclear repulsion energy :  122.739103536560 Hartree


  Symmetry Orbitals
  -----------------

  Number of orbitals in each symmetry:         114   62


  Symmetry  A' ( 1)

    1     C1       1s         1
    2     C1       1s         2
    3     C1       1s         3
    4     C1       1s         4
    5     C1       2px        5
    6     C1       2py        6
    7     C1       2px        8
    8     C1       2py        9
    9     C1       2px       11
   10     C1       2py       12
   11     C1       3d2-      14
   12     C1       3d0       16
   13     C1       3d2+      18
   14     C1       3d2-      19
   15     C1       3d0       21
   16     C1       3d2+      23
   17     C1       4f3-      24
   18     C1       4f1-      26
   19     C1       4f1+      28
   20     C1       4f3+      30
   21     C2       1s        31
   22     C2       1s        32
   23     C2       1s        33
   24     C2       1s        34
   25     C2       2px       35
   26     C2       2py       36
   27     C2       2px       38
   28     C2       2py       39
   29     C2       2px       41
   30     C2       2py       42
   31     C2       3d2-      44
   32     C2       3d0       46
   33     C2       3d2+      48
   34     C2       3d2-      49
   35     C2       3d0       51
   36     C2       3d2+      53
   37     C2       4f3-      54
   38     C2       4f1-      56
   39     C2       4f1+      58
   40     C2       4f3+      60
   41     O3       1s        61
   42     O3       1s        62
   43     O3       1s        63
   44     O3       1s        64
   45     O3       2px       65
   46     O3       2py       66
   47     O3       2px       68
   48     O3       2py       69
   49     O3       2px       71
   50     O3       2py       72
   51     O3       3d2-      74
   52     O3       3d0       76
   53     O3       3d2+      78
   54     O3       3d2-      79
   55     O3       3d0       81
   56     O3       3d2+      83
   57     O3       4f3-      84
   58     O3       4f1-      86
   59     O3       4f1+      88
   60     O3       4f3+      90
   61     O7       1s        91
   62     O7       1s        92
   63     O7       1s        93
   64     O7       1s        94
   65     O7       2px       95
   66     O7       2py       96
   67     O7       2px       98
   68     O7       2py       99
   69     O7       2px      101
   70     O7       2py      102
   71     O7       3d2-     104
   72     O7       3d0      106
   73     O7       3d2+     108
   74     O7       3d2-     109
   75     O7       3d0      111
   76     O7       3d2+     113
   77     O7       4f3-     114
   78     O7       4f1-     116
   79     O7       4f1+     118
   80     O7       4f3+     120
   81     H4       1s       121
   82     H4       1s       122
   83     H4       1s       123
   84     H4       2px      124
   85     H4       2py      125
   86     H4       2px      127
   87     H4       2py      128
   88     H4       3d2-     130
   89     H4       3d0      132
   90     H4       3d2+     134
   91     H5       1s       135 +  136
   92     H5       1s       137 +  138
   93     H5       1s       139 +  140
   94     H5       2px      141 +  142
   95     H5       2py      143 +  144
   96     H5       2pz      145 -  146
   97     H5       2px      147 +  148
   98     H5       2py      149 +  150
   99     H5       2pz      151 -  152
  100     H5       3d2-     153 +  154
  101     H5       3d1-     155 -  156
  102     H5       3d0      157 +  158
  103     H5       3d1+     159 -  160
  104     H5       3d2+     161 +  162
  105     H8       1s       163
  106     H8       1s       164
  107     H8       1s       165
  108     H8       2px      166
  109     H8       2py      167
  110     H8       2px      169
  111     H8       2py      170
  112     H8       3d2-     172
  113     H8       3d0      174
  114     H8       3d2+     176


  Symmetry  A" ( 2)

  115     C1       2pz        7
  116     C1       2pz       10
  117     C1       2pz       13
  118     C1       3d1-      15
  119     C1       3d1+      17
  120     C1       3d1-      20
  121     C1       3d1+      22
  122     C1       4f2-      25
  123     C1       4f0       27
  124     C1       4f2+      29
  125     C2       2pz       37
  126     C2       2pz       40
  127     C2       2pz       43
  128     C2       3d1-      45
  129     C2       3d1+      47
  130     C2       3d1-      50
  131     C2       3d1+      52
  132     C2       4f2-      55
  133     C2       4f0       57
  134     C2       4f2+      59
  135     O3       2pz       67
  136     O3       2pz       70
  137     O3       2pz       73
  138     O3       3d1-      75
  139     O3       3d1+      77
  140     O3       3d1-      80
  141     O3       3d1+      82
  142     O3       4f2-      85
  143     O3       4f0       87
  144     O3       4f2+      89
  145     O7       2pz       97
  146     O7       2pz      100
  147     O7       2pz      103
  148     O7       3d1-     105
  149     O7       3d1+     107
  150     O7       3d1-     110
  151     O7       3d1+     112
  152     O7       4f2-     115
  153     O7       4f0      117
  154     O7       4f2+     119
  155     H4       2pz      126
  156     H4       2pz      129
  157     H4       3d1-     131
  158     H4       3d1+     133
  159     H5       1s       135 -  136
  160     H5       1s       137 -  138
  161     H5       1s       139 -  140
  162     H5       2px      141 -  142
  163     H5       2py      143 -  144
  164     H5       2pz      145 +  146
  165     H5       2px      147 -  148
  166     H5       2py      149 -  150
  167     H5       2pz      151 +  152
  168     H5       3d2-     153 -  154
  169     H5       3d1-     155 +  156
  170     H5       3d0      157 -  158
  171     H5       3d1+     159 +  160
  172     H5       3d2+     161 -  162
  173     H8       2pz      168
  174     H8       2pz      171
  175     H8       3d1-     173
  176     H8       3d1+     175

  Symmetries of electric field:  A' (1)  A' (1)  A" (2)

  Symmetries of magnetic field:  A" (2)  A" (2)  A' (1)


                     .---------------------------------------.
                     | Starting in Integral Section (HERMIT) |
                     `---------------------------------------'



 ***************************************************************************************
 ****************** Output from **INTEGRALS input processing (HERMIT) ******************
 ***************************************************************************************


 - Using defaults, no **INTEGRALS input found

 Default print level:        1

 Calculation of one- and two-electron Hamiltonian integrals.

 Center of mass  (bohr):      0.000000000000     -0.000000000000      0.000000000000
 Operator center (bohr):      0.000000000000      0.000000000000      0.000000000000
 Gauge origin    (bohr):      0.000000000000     -0.000000000000      0.000000000000
 Dipole origin   (bohr):      0.000000000000     -0.000000000000      0.000000000000

Calculation of 2-electron integrals are postponed until they are needed.


     ************************************************************************
     ************************** Output from HERINT **************************
     ************************************************************************



                      Nuclear contribution to dipole moments
                      --------------------------------------

                 au               Debye          C m (/(10**-30)

      x      3.55281659         9.03035844        30.12203344
      y     -1.23162941        -3.13048950       -10.44218897


  Total CPU  time used in HERMIT:   0.22 seconds
  Total wall time used in HERMIT:   0.22 seconds


                        .----------------------------------.
                        | End of Integral Section (HERMIT) |
                        `----------------------------------'



                   .--------------------------------------------.
                   | Starting in Wave Function Section (SIRIUS) |
                   `--------------------------------------------'


 *** Output from Huckel module :

     Using EWMO model:          F
     Using EHT  model:          T
     Number of Huckel orbitals each symmetry:   19    5

 Huckel EHT eigenvalues for symmetry :  1
          -20.711152     -20.707483     -11.392152     -11.375913      -1.681240
           -1.408325      -1.238885      -0.784839      -0.720830      -0.692264
           -0.570867      -0.557335      -0.483170      -0.277495      -0.255929
           -0.216600      -0.208628      -0.191694      -0.176904

 Huckel EHT eigenvalues for symmetry :  2
           -0.768271      -0.595644      -0.580257      -0.307486      -0.198838

 **********************************************************************
 *SIRIUS* a direct, restricted step, second order MCSCF program       *
 **********************************************************************

 
     Date and time (Linux)  : Mon May  4 22:34:50 2026
     Host name              : debian                                  

 Title lines from ".mol" input file:
     Acetic acid CH3COOH using the cc-pVTZ basis
     Using automatic symmetry detection

 Print level on unit LUPRI =   2 is   0
 Print level on unit LUW4  =   2 is   5

@    Restricted, closed shell Hartree-Fock calculation.

 Initial molecular orbitals are obtained according to
 ".MOSTART EHT   " input option

     Wave function specification
     ============================
@    Wave function type        --- HF ---
@    Number of closed shell electrons          32
@    Number of electrons in active shells       0
@    Total charge of the molecule               0

@    Spin multiplicity and 2 M_S                1         0
@    Total number of symmetries                 2 (point group: Cs )
@    Reference state symmetry                   1 (irrep name : A' )

     Orbital specifications
     ======================
@    Abelian symmetry species          All |    1    2
@                                          |  A'   A" 
                                       --- |  ---  ---
@    Total number of orbitals          176 |  114   62
@    Number of basis functions         176 |  114   62

      ** Automatic occupation of RHF orbitals **

      -- Initial occupation of symmetries is determined from extended Huckel guess.           
      -- Initial occupation of symmetries is :
@    Occupied SCF orbitals              16 |   13    3

     Maximum number of Fock   iterations      0
     Maximum number of DIIS   iterations     60
     Maximum number of QC-SCF iterations     60
     Threshold for SCF convergence     1.00D-05


 ***********************************************
 ***** DIIS acceleration of SCF iterations *****
 ***********************************************

 C1-DIIS algorithm; max error vectors =    8

 Automatic occupation of symmetries with  32 electrons.

 Iter     Total energy    Error norm  Delta(E)    SCF occupation
 -----------------------------------------------------------------------------

Calculating AOSUPINT

---> (Re)generating AOTWOINT


     ************************************************************************
     ************************** Output from HERINT **************************
     ************************************************************************


***  INFO  GETGAB: GABSO--- not found on AOGABINT. Regenerating.

 Threshold for neglecting two-electron integrals:  1.00D-12
 HERMIT - Number of two-electron integrals written:    58746346 ( 48.4% )
 HERMIT - Megabytes written:                            672.382

 2-el. screening, shell pairs skipped          54
  Total CPU  time used in TWOINT:  10.05 seconds
  Total wall time used in TWOINT:  10.07 seconds
  Time used in TWOINT     is      10.14 seconds
  CPU  time used in MAKE_AOTWOINT is  10.14 seconds
  WALL time used in MAKE_AOTWOINT is  10.15 seconds
     (Precalculated AO two-electron integrals are transformed to P-supermatrix elements.
      Threshold for discarding integrals :  1.00D-12 )

  CPU  time used in FORMSUP    is   2.94 seconds
  WALL time used in FORMSUP    is   2.94 seconds
@  1  -226.901507541       4.75D+00  -2.27D+02    13   3
      Virial theorem: -V/T =      1.993060
@    MULPOP   C1     -0.06; C2      1.18; O3     -0.95; O7     -0.48; H4     -0.01; H5  _1  0.04; H5  _2  0.04; H8      0.25; 
   1  Level shift: doubly occupied orbital energies shifted by -2.00D-01
 -----------------------------------------------------------------------------
@  2  -227.766431096       1.70D+00  -8.65D-01    13   3
      Virial theorem: -V/T =      2.003158
@    MULPOP   C1     -0.53; C2     -0.18; O3      0.06; O7     -0.21; H4      0.21; H5  _1  0.20; H5  _2  0.20; H8      0.26; 
   2  Level shift: doubly occupied orbital energies shifted by -1.00D-01
 -----------------------------------------------------------------------------
@  3  -227.890522942       5.24D-01  -1.24D-01    13   3
      Virial theorem: -V/T =      1.999018
@    MULPOP   C1     -0.33; C2      0.45; O3     -0.44; O7     -0.29; H4      0.13; H5  _1  0.13; H5  _2  0.13; H8      0.23; 
   3  Level shift: doubly occupied orbital energies shifted by -5.00D-02
 -----------------------------------------------------------------------------
@  4  -227.903471425       1.24D-01  -1.29D-02    13   3
      Virial theorem: -V/T =      2.001102
@    MULPOP   C1     -0.29; C2      0.38; O3     -0.36; O7     -0.32; H4      0.13; H5  _1  0.11; H5  _2  0.11; H8      0.23; 
   4  Level shift: doubly occupied orbital energies shifted by -1.25D-02
 -----------------------------------------------------------------------------
@  5  -227.904627429       4.00D-02  -1.16D-03    13   3
      Virial theorem: -V/T =      2.000511
@    MULPOP   C1     -0.29; C2      0.39; O3     -0.38; O7     -0.31; H4      0.13; H5  _1  0.11; H5  _2  0.11; H8      0.24; 
 -----------------------------------------------------------------------------
@  6  -227.904777211       1.40D-02  -1.50D-04    13   3
      Virial theorem: -V/T =      2.000382
@    MULPOP   C1     -0.28; C2      0.40; O3     -0.38; O7     -0.32; H4      0.13; H5  _1  0.11; H5  _2  0.11; H8      0.24; 
 -----------------------------------------------------------------------------
@  7  -227.904792814       3.77D-03  -1.56D-05    13   3
      Virial theorem: -V/T =      2.000454
@    MULPOP   C1     -0.28; C2      0.40; O3     -0.38; O7     -0.32; H4      0.13; H5  _1  0.11; H5  _2  0.11; H8      0.24; 
 -----------------------------------------------------------------------------
@  8  -227.904794651       9.40D-04  -1.84D-06    13   3
      Virial theorem: -V/T =      2.000428
@    MULPOP   C1     -0.28; C2      0.40; O3     -0.38; O7     -0.32; H4      0.13; H5  _1  0.11; H5  _2  0.11; H8      0.24; 
 -----------------------------------------------------------------------------
@  9  -227.904794752       2.51D-04  -1.02D-07    13   3
      Virial theorem: -V/T =      2.000432
@    MULPOP   C1     -0.28; C2      0.40; O3     -0.38; O7     -0.32; H4      0.13; H5  _1  0.11; H5  _2  0.11; H8      0.24; 
 -----------------------------------------------------------------------------
@ 10  -227.904794763       7.47D-05  -1.10D-08    13   3
      Virial theorem: -V/T =      2.000432
@    MULPOP   C1     -0.28; C2      0.40; O3     -0.38; O7     -0.32; H4      0.13; H5  _1  0.11; H5  _2  0.11; H8      0.24; 
 -----------------------------------------------------------------------------
@ 11  -227.904794764       2.34D-05  -9.70D-10    13   3
      Virial theorem: -V/T =      2.000432
@    MULPOP   C1     -0.28; C2      0.40; O3     -0.38; O7     -0.32; H4      0.13; H5  _1  0.11; H5  _2  0.11; H8      0.24; 
 -----------------------------------------------------------------------------
@ 12  -227.904794765       8.21D-06  -9.38D-11    13   3

@ *** DIIS converged in  12 iterations !
@     Converged SCF energy, gradient:   -227.904794764507    8.21D-06
    - total time used in SIRFCK :              0.00 seconds


 *** SCF orbital energy analysis ***

 Only the 20 lowest virtual orbital energies printed in each symmetry.

 Number of electrons        :   32
 Closed shell orbitals      :   13    3

 Sym       Hartree-Fock orbital energies

1 A'    -20.60710970   -20.54218607   -11.37847179   -11.24057917    -1.48015715
         -1.37122331    -1.02787857    -0.83462033    -0.70681173    -0.68574684
         -0.58392453    -0.57399329    -0.45230830     0.13740276     0.16827460
          0.21340779     0.28802009     0.34488252     0.39733327     0.40623788
          0.50458147     0.56009462     0.59610970     0.61961645     0.65083398
          0.67501573     0.70360818     0.73287464     0.79981058     0.82740431
          0.89520792     0.91388982     1.03559641

2 A"     -0.65742309    -0.56307841    -0.48565440     0.17791529     0.23020098
          0.38885364     0.45949927     0.61704965     0.72274831     0.79653215
          0.91131671     0.93204846     0.99050313     1.06782417     1.17968854
          1.28676255     1.35833219     1.51269295     1.59126459     1.83404402
          2.02532615     2.22597617     2.28820255

    E(LUMO) :     0.13740276 au (symmetry 1)
  - E(HOMO) :    -0.45230830 au (symmetry 1)
  ------------------------------------------
    gap     :     0.58971106 au

 --- Writing SIRIFC interface file

--------------------------------------------------------------------------------


     .--------------------------------------------------.
     | HF-SCF KT IPs [a.u. & eV] from Koopmans' theorem |
     `--------------------------------------------------'


     HF-SCF KT symmetry 1 ( A' ) in point group Cs  -- 13 principal poles with pole strength 1

   ============  ============  ============  ============  ============
      20.607110     20.542186     11.378472     11.240579      1.480157
     560.747979    558.981318    309.623967    305.871719     40.277125
   ============  ============  ============  ============  ============

   ============  ============  ============  ============  ============
       1.371223      1.027879      0.834620      0.706812      0.685747
      37.312884     27.969999     22.711175     19.233325     18.660121
   ============  ============  ============  ============  ============

   ============  ============  ============
       0.583925      0.573993      0.452308
      15.889395     15.619152     12.307935
   ============  ============  ============

     HF-SCF KT symmetry 2 ( A" ) in point group Cs  -- 3 principal poles with pole strength 1

   ============  ============  ============
       0.657423      0.563078      0.485654
      17.889392     15.322143     13.215329
   ============  ============  ============

@ Summary of HF-SCF KT ionization potentials [eV]:

@ Symmetry 1 (A' ) :   560.748     558.981     309.624     305.872      40.277
@                       37.313      27.970      22.711      19.233      18.660
@                       15.889      15.619      12.308

@ Symmetry 2 (A" ) :    17.889      15.322      13.215

  === End of HF-SCF KT output ===
--------------------------------------------------------------------------------


 CPU and wall time for SCF :      15.829      15.841


                       .-----------------------------------.
                       | --- Final results from SIRIUS --- |
                       `-----------------------------------'


@    Spin multiplicity:           1
@    Spatial symmetry:            1 ( irrep  A'  in Cs  )
@    Total charge of molecule:    0

@    Final HF energy:            -227.904794764507                 
@    Nuclear repulsion:           122.739103536560
@    Electronic energy:          -350.643898301067

@    Final gradient norm:           0.000008211249

 
     Date and time (Linux)  : Mon May  4 22:35:06 2026
     Host name              : debian                                  

File label for MO orbitals:   4May26   FOCKDIIS

 (Only coefficients > 0.0100 are printed.)

 Molecular orbitals for symmetry species 1  (A' )
 ------------------------------------------------

    Orbital         4        5        6        7        8        9       10
   1 C1  :1s     0.9996  -0.0025  -0.0013  -0.0141   0.0050  -0.0004   0.0022
   2 C1  :1s     0.0033   0.0579   0.0154   0.6982  -0.3030  -0.0035  -0.1358
   3 C1  :1s     0.0017   0.0003   0.0005  -0.0199   0.0084  -0.0005   0.0029
   4 C1  :1s     0.0040  -0.0319   0.0064  -0.1265   0.0032   0.0163  -0.0361
   5 C1  :2px   -0.0007  -0.0352  -0.0095  -0.0745  -0.1810   0.0289  -0.3343
   6 C1  :2py   -0.0002   0.0023   0.0171  -0.0011  -0.0379  -0.1223   0.1619
   7 C1  :2px    0.0011   0.0110   0.0115   0.0043   0.0159  -0.0052   0.0243
   8 C1  :2py    0.0001  -0.0025   0.0003   0.0001   0.0032   0.0048  -0.0120
   9 C1  :2px   -0.0002   0.0172   0.0035   0.0269   0.0512  -0.0311   0.0677
  10 C1  :2py   -0.0000  -0.0005  -0.0063   0.0012   0.0079   0.0038  -0.0304
  16 C1  :3d2+  -0.0003  -0.0020  -0.0042   0.0038   0.0067   0.0044   0.0123
  21 C2  :1s    -0.0026  -0.0192  -0.0101  -0.0024  -0.0028   0.0020   0.0004
  22 C2  :1s     0.0002   0.4365   0.1816   0.3140   0.4110  -0.3309   0.1665
  24 C2  :1s    -0.0021  -0.1157  -0.0447  -0.0846  -0.0736   0.1089  -0.0025
  25 C2  :2px    0.0007  -0.1504  -0.0602   0.2746  -0.0991   0.1452   0.4147
  26 C2  :2py   -0.0001   0.0102   0.3581  -0.1048  -0.2624  -0.2715   0.2547
  27 C2  :2px   -0.0001   0.0223   0.0172  -0.0214   0.0136  -0.0216  -0.0141
  28 C2  :2py   -0.0001  -0.0133  -0.0644   0.0117   0.0176   0.0425  -0.0272
  29 C2  :2px   -0.0012   0.0482   0.0115  -0.0718   0.0528  -0.0833  -0.0759
  30 C2  :2py   -0.0001  -0.0013  -0.1134   0.0288   0.0752   0.1179  -0.1015
  31 C2  :3d2-   0.0000  -0.0003  -0.0189  -0.0003   0.0052   0.0035  -0.0051
  32 C2  :3d0    0.0001  -0.0140  -0.0041  -0.0048  -0.0072   0.0046  -0.0009
  34 C2  :3d2-   0.0000   0.0024  -0.0167  -0.0051   0.0034  -0.0107  -0.0017
  35 C2  :3d0    0.0001  -0.0174  -0.0067  -0.0040  -0.0108  -0.0009   0.0000
  36 C2  :3d2+  -0.0002  -0.0120   0.0013   0.0088  -0.0102  -0.0193  -0.0008
  40 C2  :4f3+  -0.0003   0.0119   0.0048   0.0034   0.0067  -0.0044   0.0028
  42 O3  :1s     0.0001   0.4259   0.6664  -0.1718  -0.1542   0.3982  -0.0939
  44 O3  :1s     0.0002  -0.0629  -0.0559  -0.0060  -0.0287   0.0735  -0.0112
  45 O3  :2px    0.0000   0.0496   0.0907   0.0583  -0.0031  -0.2289   0.4236
  46 O3  :2py    0.0000  -0.1242  -0.1349   0.0089  -0.1261   0.5092   0.0527
  49 O3  :2px    0.0000  -0.0176  -0.0214  -0.0066  -0.0041   0.0129  -0.0120
  50 O3  :2py   -0.0000   0.0364   0.0359  -0.0038   0.0084  -0.0226   0.0003
  54 O3  :3d2-  -0.0000  -0.0052  -0.0118  -0.0010  -0.0006   0.0159  -0.0147
  56 O3  :3d2+  -0.0001  -0.0057  -0.0059   0.0038  -0.0052   0.0128   0.0105
  62 O7  :1s     0.0001   0.6478  -0.5456  -0.1101  -0.1070   0.2023   0.1535
  64 O7  :1s     0.0000  -0.0734   0.0184   0.0098   0.0044   0.0813   0.0621
  65 O7  :2px    0.0000  -0.0119   0.0259   0.1717   0.5140   0.3696   0.0293
  66 O7  :2py   -0.0000   0.1196  -0.0414   0.0368   0.3016  -0.2807  -0.4374
  68 O7  :2py    0.0001   0.0015  -0.0105  -0.0013   0.0002   0.0060  -0.0009
  69 O7  :2px   -0.0004   0.0050  -0.0122  -0.0342  -0.0720  -0.0227  -0.0127
  70 O7  :2py    0.0001  -0.0349   0.0055   0.0002  -0.0250   0.0021   0.0144
  74 O7  :3d2-  -0.0000   0.0021  -0.0062   0.0066   0.0179   0.0131  -0.0007
  76 O7  :3d2+  -0.0001  -0.0025   0.0008  -0.0007  -0.0176   0.0035   0.0177
  81 H4  :1s     0.0006   0.0141   0.0144   0.2698  -0.2491  -0.0884  -0.0854
  82 H4  :1s    -0.0013  -0.0026  -0.0129  -0.0686   0.0522   0.0259   0.0224
  83 H4  :1s    -0.0009  -0.0067  -0.0051  -0.1026   0.0776   0.0474   0.0296
  91 H5  :1s     0.0008   0.0122  -0.0001   0.2788  -0.1751   0.0713  -0.2484
  92 H5  :1s    -0.0015  -0.0052  -0.0035  -0.0685   0.0381  -0.0146   0.0404
  93 H5  :1s    -0.0012  -0.0030  -0.0018  -0.1012   0.0568  -0.0172   0.0733
 105 H8  :1s     0.0001   0.2636  -0.2306  -0.1878  -0.4911  -0.3087  -0.0259
 106 H8  :1s    -0.0004  -0.0793   0.0688   0.0330   0.0784   0.0399  -0.0156
 107 H8  :1s    -0.0002  -0.1004   0.0837   0.0660   0.1570   0.1059   0.0140
 108 H8  :2px   -0.0000   0.0097  -0.0084  -0.0057  -0.0127  -0.0074  -0.0014
 110 H8  :2px   -0.0001   0.0105  -0.0088  -0.0108  -0.0245  -0.0143  -0.0078
 111 H8  :2py   -0.0000  -0.0010   0.0011   0.0023   0.0107  -0.0015  -0.0100

    Orbital        11       12       13       14       15       16       17
   1 C1  :1s    -0.0015  -0.0008  -0.0017  -0.0211  -0.0119  -0.0021   0.0282
   2 C1  :1s    -0.0165  -0.0054  -0.0964  -0.3813  -0.1985  -0.0500   0.0285
   3 C1  :1s     0.0019   0.0018   0.0051   0.0221   0.0060   0.0017   0.0426
   4 C1  :1s    -0.0097   0.0224  -0.0635  -3.4196  -1.5479  -0.7939  -3.9081
   5 C1  :2px    0.2018   0.3495   0.3048  -0.0641  -0.1537  -0.1058   0.0065
   6 C1  :2py   -0.3738   0.5062  -0.1469   0.0413   0.0569  -0.3532   0.0296
   7 C1  :2px    0.0033  -0.0119  -0.0015  -0.1390  -0.0593  -0.0410   0.1021
   8 C1  :2py    0.0155  -0.0350   0.0091   0.0555   0.0491  -0.2510  -0.0350
   9 C1  :2px   -0.0278  -0.0579  -0.0280  -0.0520  -0.3935  -0.1603   3.5164
  10 C1  :2py    0.0504  -0.0638   0.0022   0.1859   0.3897  -1.9368  -0.4572
  11 C1  :3d2-  -0.0047   0.0115  -0.0015   0.0007  -0.0024  -0.0023  -0.0105
  12 C1  :3d0    0.0113  -0.0055   0.0064  -0.0057   0.0019  -0.0032  -0.0224
  13 C1  :3d2+  -0.0059  -0.0121  -0.0084   0.0065   0.0019   0.0005   0.0392
  14 C1  :3d2-  -0.0041   0.0105   0.0042  -0.0083   0.0037  -0.1004   0.0897
  15 C1  :3d0    0.0172  -0.0024   0.0067  -0.0376  -0.0278   0.1213   0.1358
  16 C1  :3d2+  -0.0125  -0.0189  -0.0123   0.0550   0.0219   0.0321  -0.2167
  18 C1  :4f1-  -0.0009  -0.0007  -0.0001   0.0224   0.0070   0.0004   0.0110
  19 C1  :4f1+  -0.0015  -0.0016  -0.0018  -0.0076  -0.0074  -0.0002  -0.0232
  20 C1  :4f3+   0.0029   0.0024   0.0031   0.0142   0.0051   0.0057   0.0276
  22 C2  :1s    -0.0509  -0.1090  -0.0876   0.0636  -0.0089   0.0259   0.2692
  23 C2  :1s     0.0027   0.0023   0.0032  -0.0124  -0.0164  -0.0016  -0.0275
  24 C2  :1s     0.0012   0.0013   0.0113   0.5878   0.6428   0.2025   3.6812
  25 C2  :2px   -0.2670  -0.2658  -0.1903   0.0068   0.0312  -0.0088   0.2054
  26 C2  :2py    0.3227   0.0690   0.0020  -0.0502   0.0574  -0.0424  -0.0597
  27 C2  :2px    0.0242   0.0135   0.0055  -0.0060   0.0128   0.0411   0.4913
  28 C2  :2py   -0.0528  -0.0146   0.0054   0.0686  -0.0277   0.0085  -0.1502
  29 C2  :2px    0.0848   0.0409   0.0752   0.5122  -0.5466   0.3014   2.8927
  30 C2  :2py   -0.1458  -0.0640   0.0228   0.2291  -0.3826   0.2476  -0.3043
  31 C2  :3d2-  -0.0189   0.0048   0.0208  -0.0026   0.0054  -0.0112   0.0005
  33 C2  :3d2+  -0.0119  -0.0113  -0.0301  -0.0019   0.0089  -0.0003   0.0130
  34 C2  :3d2-  -0.0162   0.0175   0.0315  -0.0336   0.0084  -0.0116   0.0511
  35 C2  :3d0   -0.0023  -0.0042  -0.0038   0.0031  -0.0625  -0.0175  -0.0842
  36 C2  :3d2+  -0.0118  -0.0159  -0.0437  -0.0147  -0.0357  -0.0001   0.1987
  37 C2  :4f3-   0.0033   0.0078  -0.0088  -0.0008  -0.0017  -0.0029  -0.0115
  39 C2  :4f1+   0.0015   0.0016   0.0004   0.0009   0.0069  -0.0043  -0.0202
  41 O3  :1s    -0.0038  -0.0015   0.0005   0.0073  -0.0027   0.0019  -0.0104
  42 O3  :1s    -0.1130  -0.0358   0.0125  -0.0546  -0.0034   0.0100   0.0520
  44 O3  :1s    -0.0345   0.0024  -0.0133  -0.2994  -0.1288  -0.0425   0.6837
  45 O3  :2px    0.1232   0.0157   0.7205   0.0161  -0.1187  -0.0055  -0.0898
  46 O3  :2py   -0.4661  -0.1454   0.3520   0.0087  -0.0208  -0.0684   0.0403
  47 O3  :2px   -0.0039  -0.0009  -0.0018  -0.0033  -0.0128   0.0055   0.0648
  48 O3  :2py    0.0034   0.0003   0.0035   0.0210   0.0100   0.0003  -0.0523
  49 O3  :2px   -0.0022   0.0062   0.0453  -0.1159  -0.0157  -0.0514  -0.2136
  50 O3  :2py    0.0127   0.0029   0.0316   0.0574   0.0487  -0.0475  -0.2925
  54 O3  :3d2-  -0.0133  -0.0038  -0.0108   0.0144   0.0001   0.0066  -0.0272
  55 O3  :3d0   -0.0089  -0.0030   0.0011   0.0093   0.0008  -0.0041  -0.0228
  56 O3  :3d2+  -0.0138  -0.0041   0.0137   0.0025  -0.0041  -0.0083  -0.0391
  62 O7  :1s     0.1401   0.1607   0.0495  -0.1663   0.1481  -0.0273  -0.0197
  64 O7  :1s     0.0607   0.0403   0.0493  -0.4826   0.3462   0.2639   0.1024
  65 O7  :2px    0.2099   0.3149   0.0484   0.1080  -0.2377  -0.0448  -0.0349
  66 O7  :2py   -0.4210  -0.1309   0.3310  -0.0071   0.0080  -0.0298  -0.0163
  67 O7  :2px   -0.0058  -0.0047  -0.0032   0.0252  -0.0355  -0.0155   0.0058
  68 O7  :2py   -0.0045   0.0007   0.0082  -0.0132   0.0141   0.0023  -0.0164
  69 O7  :2px   -0.0288  -0.0176  -0.0234   0.3238  -0.5247  -0.2246  -0.0200
  70 O7  :2py   -0.0134  -0.0243   0.0170   0.0414  -0.1717   0.0558   0.1374
  74 O7  :3d2-  -0.0009   0.0050   0.0006   0.0195  -0.0336  -0.0047   0.0258
  75 O7  :3d0    0.0078   0.0057  -0.0050   0.0087  -0.0040  -0.0167  -0.0172
  76 O7  :3d2+   0.0082  -0.0059  -0.0071  -0.0203   0.0272   0.0153   0.0043
  81 H4  :1s    -0.2693   0.6663  -0.0269  -0.0099  -0.0437   0.0403  -0.1132
  82 H4  :1s     0.0392  -0.0883  -0.0036   0.2685   0.0297   0.3524   0.0425
  83 H4  :1s     0.0670  -0.1610   0.0417   0.8157   0.4943   3.1257  -0.3397
  84 H4  :2px    0.0051  -0.0055   0.0025  -0.0002   0.0017   0.0135   0.0173
  85 H4  :2py    0.0035  -0.0125  -0.0001   0.0080   0.0084   0.0208  -0.0108
  86 H4  :2px    0.0063  -0.0042   0.0037  -0.0400  -0.0277  -0.1343  -0.0674
  87 H4  :2py    0.0036  -0.0162   0.0022  -0.1360  -0.0559  -0.2414  -0.0191
  88 H4  :3d2-  -0.0019   0.0022  -0.0011   0.0057   0.0023   0.0118   0.0017
  91 H5  :1s     0.2756  -0.1765   0.1412  -0.0465   0.0180  -0.0257  -0.1275
  92 H5  :1s    -0.0483   0.0106  -0.0084   0.3409   0.1349  -0.1353  -0.0013
  93 H5  :1s    -0.0627   0.0463  -0.0218   1.2317   0.9657  -1.2268  -0.1976
  94 H5  :2px   -0.0007   0.0038   0.0013   0.0031  -0.0001  -0.0055   0.0197
  96 H5  :2pz   -0.0057   0.0041  -0.0030   0.0095   0.0092  -0.0124  -0.0051
  97 H5  :2px    0.0044   0.0105   0.0056  -0.0598  -0.0130   0.0449  -0.0507
  98 H5  :2py   -0.0028   0.0018   0.0015   0.0898   0.0509  -0.0058   0.0249
  99 H5  :2pz   -0.0054   0.0079  -0.0066  -0.1565  -0.0873   0.1032  -0.0258
 105 H8  :1s    -0.2237  -0.2906  -0.0174   0.0894  -0.1215   0.0518   0.0089
 106 H8  :1s     0.0094   0.0334  -0.0213   0.1401  -0.1322  -0.1576   0.0454
 107 H8  :1s     0.0652   0.0732  -0.0419   1.0377  -1.6609  -0.1496   0.4647
 108 H8  :2px   -0.0060  -0.0060   0.0011  -0.0119   0.0182  -0.0001  -0.0016
 110 H8  :2px   -0.0150  -0.0111  -0.0082   0.1361  -0.1657  -0.0868   0.0011
 111 H8  :2py   -0.0035   0.0006   0.0065  -0.0173   0.0289   0.0269   0.0072
 114 H8  :3d2+  -0.0024  -0.0021  -0.0005   0.0090  -0.0100  -0.0062   0.0001

    Orbital        18       19       20       21       22       23
   1 C1  :1s     0.0087  -0.0001  -0.0040  -0.0156  -0.0206  -0.0013
   2 C1  :1s    -0.0171  -0.0099   0.0179   0.0013  -0.2801  -0.4523
   3 C1  :1s     0.0027   0.0185  -0.0024   0.0392  -0.0192  -0.0452
   4 C1  :1s     0.0421  -1.3076  -0.4246  -4.7543   0.6812   3.0789
   5 C1  :2px    0.2072   0.0185  -0.1580   0.0076   0.2367   0.3700
   6 C1  :2py   -0.1417  -0.1786  -0.1016   0.1495  -0.2950   0.4524
   7 C1  :2px    0.0820   0.2113   0.0768   0.1997   0.3151   0.1974
   8 C1  :2py    0.2507   0.4335   0.5507  -0.3942   0.5138  -0.6582
   9 C1  :2px    1.0090   0.5498  -0.0169   1.1074  -0.3450  -0.9948
  10 C1  :2py    0.5834   2.7004   1.5639  -2.1431   0.7854  -2.1406
  11 C1  :3d2-   0.0002   0.0320  -0.0051  -0.0199   0.0254  -0.0281
  12 C1  :3d0   -0.0031   0.0114   0.0103   0.0087  -0.0109   0.0305
  13 C1  :3d2+   0.0101   0.0024  -0.0005  -0.0117  -0.0178  -0.0084
  14 C1  :3d2-  -0.0310   0.1987   0.2567  -0.1535   0.3355  -0.4005
  15 C1  :3d0   -0.0816  -0.3147  -0.3580   0.3088  -0.3483   0.4083
  16 C1  :3d2+  -0.0713  -0.1739  -0.1823   0.0551  -0.0906   0.1718
  17 C1  :4f3-   0.0045  -0.0135  -0.0079   0.0078  -0.0082   0.0144
  18 C1  :4f1-  -0.0009   0.0112   0.0078   0.0133  -0.0100  -0.0466
  19 C1  :4f1+  -0.0101  -0.0280  -0.0263   0.0087   0.0024   0.0379
  20 C1  :4f3+  -0.0164  -0.0232  -0.0217   0.0317  -0.0286  -0.0163
  21 C2  :1s     0.0396  -0.0368   0.0024   0.0089   0.0081  -0.0417
  22 C2  :1s     0.2707  -0.0595  -0.0892   0.2171   0.3405   0.0804
  23 C2  :1s    -0.0548  -0.0181   0.0632  -0.0294   0.0350   0.0193
  24 C2  :1s     4.2317   1.5100  -3.2251   3.3886  -0.9411  -1.0739
  25 C2  :2px    0.0868  -0.1276  -0.0548  -0.3181  -0.0853   0.3449
  26 C2  :2py   -0.0470  -0.1255   0.0333  -0.1189  -0.4822   0.1231
  27 C2  :2px   -0.2717  -0.0820   0.2360  -0.1978  -0.0859  -0.1425
  28 C2  :2py    0.5047  -0.3550   0.2424  -0.1581   0.2311  -0.2262
  29 C2  :2px   -0.7489   0.7143   1.5967   3.7557   0.9254   0.0343
  30 C2  :2py    0.8470  -3.1107   1.2491   0.7950   1.6325  -0.5050
  31 C2  :3d2-  -0.0001   0.0108   0.0166   0.0190  -0.0174   0.0224
  32 C2  :3d0    0.0117   0.0033  -0.0221   0.0095   0.0133   0.0164
  33 C2  :3d2+  -0.0036  -0.0046  -0.0041  -0.0063  -0.0312  -0.0161
  34 C2  :3d2-  -0.3991   0.0522  -0.2793   0.0290  -0.5070   0.3118
  35 C2  :3d0   -0.1665   0.0255   0.2387  -0.0739   0.1637   0.1467
  36 C2  :3d2+  -0.2270   0.0419   0.2475   0.3067   0.1533  -0.1473
  37 C2  :4f3-  -0.0008  -0.0023   0.0044   0.0013   0.0120   0.0146
  38 C2  :4f1-  -0.0269   0.0226  -0.0212  -0.0007  -0.0288   0.0200
  39 C2  :4f1+   0.0193   0.0043  -0.0056  -0.0264  -0.0016   0.0003
  40 C2  :4f3+   0.0432   0.0224  -0.0333   0.0178  -0.0189  -0.0035
  41 O3  :1s     0.0308  -0.0379  -0.0093   0.0052   0.0004  -0.0184
  42 O3  :1s    -0.1811   0.0321   0.0198  -0.0631  -0.0035  -0.0804
  43 O3  :1s    -0.0046   0.0104   0.0012  -0.0002   0.0026   0.0022
  44 O3  :1s    -2.8243   1.5922   0.6122  -0.1063  -0.5751   0.9434
  45 O3  :2px   -0.0050   0.0207  -0.1408  -0.2019  -0.0503  -0.2131
  46 O3  :2py    0.0006   0.1264  -0.1272   0.0476  -0.1015   0.1175
  47 O3  :2px   -0.0997   0.0393   0.0803   0.0127   0.0135   0.0122
  48 O3  :2py    0.2071  -0.0548   0.0071  -0.0104   0.0736  -0.0422
  49 O3  :2px   -0.4735   0.2257  -0.1980  -0.2782  -0.1329   0.0126
  50 O3  :2py    0.9475  -0.0922  -0.3455   0.0951   0.1086  -0.4129
  54 O3  :3d2-   0.0839  -0.0286  -0.0038  -0.0110   0.0033  -0.0314
  55 O3  :3d0    0.0754   0.0002  -0.0209   0.0159   0.0224  -0.0226
  56 O3  :3d2+   0.0659  -0.0087   0.0123   0.0046   0.0288  -0.0125
  61 O7  :1s     0.0172   0.0467  -0.0283  -0.0035  -0.0347   0.0122
  62 O7  :1s     0.0507  -0.0171   0.1627  -0.0177  -0.2980  -0.0516
  64 O7  :1s    -0.4339  -1.8542   2.3598   0.5716   2.0088   0.1618
  65 O7  :2px   -0.0187  -0.1283   0.1612  -0.2808  -0.0126   0.1758
  66 O7  :2py   -0.1859  -0.0219   0.0317   0.0441  -0.3279   0.0326
  67 O7  :2px    0.0097   0.0577   0.0264  -0.0406  -0.0138  -0.0592
  68 O7  :2py    0.0254  -0.0542   0.1035   0.0494   0.1051  -0.0435
  69 O7  :2px   -0.1100  -0.6066   0.5103  -0.8486   0.0305  -0.8397
  70 O7  :2py   -0.2317  -0.5136   1.0549  -0.1770   0.6103  -0.0602
  71 O7  :3d2-   0.0034   0.0110  -0.0032   0.0115   0.0080   0.0062
  73 O7  :3d2+   0.0008  -0.0056   0.0022  -0.0169   0.0105   0.0038
  74 O7  :3d2-  -0.0131  -0.0476   0.0804  -0.0161   0.0566  -0.0662
  75 O7  :3d0    0.0257   0.0480  -0.0846  -0.0051  -0.0955  -0.0076
  76 O7  :3d2+  -0.0513   0.0134  -0.0318   0.0555   0.0206   0.0740
  79 O7  :4f1+  -0.0008   0.0020  -0.0011   0.0107  -0.0001   0.0040
  80 O7  :4f3+   0.0035   0.0088  -0.0107  -0.0093  -0.0068   0.0008
  81 H4  :1s    -0.1411   0.0929  -0.1785  -0.1393   0.3131  -0.1837
  82 H4  :1s    -0.6750  -1.2162  -1.3944   1.2793  -0.7043   0.5087
  83 H4  :1s    -0.3999  -0.8295  -0.4486   1.0571  -1.5346   1.6116
  85 H4  :2py    0.0144   0.0231   0.0281  -0.0143   0.0023   0.0045
  86 H4  :2px    0.1278   0.2812   0.1893  -0.2567   0.3508  -0.1651
  87 H4  :2py    0.0942   0.2164   0.2794  -0.2815   0.4972  -0.2675
  88 H4  :3d2-  -0.0142  -0.0223  -0.0176   0.0208  -0.0262   0.0121
  89 H4  :3d0    0.0115   0.0188   0.0195  -0.0112   0.0242  -0.0090
  90 H4  :3d2+   0.0025   0.0041   0.0086  -0.0084   0.0169  -0.0011
  91 H5  :1s     0.0052  -0.0350   0.1097   0.0272  -0.0920   0.3171
  92 H5  :1s     0.2554   0.7493   0.7129  -0.0862   0.1356  -0.8886
  93 H5  :1s    -0.3436   0.3650   0.4537  -0.4951   0.5628  -1.5841
  95 H5  :2py    0.0065   0.0149   0.0114  -0.0073  -0.0002  -0.0102
  97 H5  :2px   -0.0426  -0.0744  -0.0593   0.0947  -0.0371   0.2707
  98 H5  :2py    0.0401   0.1100   0.1470  -0.0312   0.0351  -0.2319
  99 H5  :2pz   -0.0087  -0.0871  -0.1032   0.0319  -0.1149   0.5622
 100 H5  :3d2-  -0.0018  -0.0093  -0.0120   0.0034  -0.0057   0.0122
 101 H5  :3d1-  -0.0041  -0.0101  -0.0139   0.0077  -0.0005   0.0286
 102 H5  :3d0    0.0004  -0.0007   0.0022   0.0019   0.0025  -0.0235
 103 H5  :3d1+   0.0017   0.0032   0.0024  -0.0036   0.0024  -0.0163
 105 H8  :1s    -0.0974  -0.0337  -0.0725  -0.3027   0.3307   0.2650
 106 H8  :1s    -0.0368  -0.0319  -0.2449  -1.0337   0.0532  -0.2936
 107 H8  :1s    -0.4093  -0.1475   1.1486   1.2067  -0.4090  -0.6625
 108 H8  :2px    0.0071   0.0021  -0.0100  -0.0408   0.0101   0.0031
 110 H8  :2px    0.0406   0.1195  -0.0720   0.0419  -0.4240  -0.4100
 111 H8  :2py   -0.0594  -0.0342   0.0014  -0.0036  -0.1042   0.0753
 113 H8  :3d0   -0.0022  -0.0110   0.0013   0.0043   0.0072   0.0109
 114 H8  :3d2+   0.0042   0.0119  -0.0079  -0.0159  -0.0244  -0.0218

 Molecular orbitals for symmetry species 2  (A" )
 ------------------------------------------------

    Orbital         1        2        3        4        5        6        7
   1 C1  :2pz    0.3294   0.5704   0.1061   0.1827  -0.3379  -0.2199  -0.0749
   2 C1  :2pz   -0.0225  -0.0337  -0.0176   0.1360  -0.1526   0.7858  -0.0185
   3 C1  :2pz   -0.0605  -0.0600  -0.0401   0.9975  -1.4605   3.1226   0.8374
   4 C1  :3d1-  -0.0069  -0.0137  -0.0044   0.0092   0.0043   0.0048   0.0092
   5 C1  :3d1+  -0.0007   0.0075   0.0031  -0.0133  -0.0142   0.0177   0.0146
   6 C1  :3d1-  -0.0052  -0.0190   0.0043  -0.0710   0.0968  -0.6222  -0.0403
   7 C1  :3d1+  -0.0064   0.0024   0.0065  -0.0002  -0.0585   0.2417  -0.2372
   8 C1  :4f2-  -0.0004  -0.0003   0.0011  -0.0033  -0.0021  -0.0485   0.0045
   9 C1  :4f0   -0.0015  -0.0004   0.0003  -0.0031  -0.0028   0.0147  -0.0001
  10 C1  :4f2+   0.0019   0.0005  -0.0003   0.0026   0.0030  -0.0360   0.0021
  11 C2  :2pz    0.4107  -0.1198  -0.2632   0.5759   0.4096  -0.2130   0.5523
  12 C2  :2pz   -0.0062   0.0070   0.0073   0.0400   0.0118  -0.1132   0.4797
  13 C2  :2pz   -0.0670  -0.0034   0.0225   0.1641   0.6589  -0.5981  -2.0555
  14 C2  :3d1-  -0.0005   0.0033  -0.0281  -0.0070  -0.0084  -0.0074  -0.0030
  15 C2  :3d1+  -0.0070   0.0132   0.0059   0.0157  -0.0009   0.0182   0.0059
  16 C2  :3d1-  -0.0039   0.0043  -0.0533  -0.0177   0.0086   0.1418   0.0473
  17 C2  :3d1+  -0.0106   0.0233   0.0149   0.0057   0.0300  -0.1097  -0.1305
  18 C2  :4f2-  -0.0002  -0.0028   0.0082   0.0031  -0.0049   0.0154   0.0021
  20 C2  :4f2+  -0.0031   0.0047   0.0012   0.0023  -0.0000  -0.0031  -0.0183
  21 O3  :2pz    0.3347  -0.1312  -0.6690  -0.4095  -0.2943   0.0331   0.0726
  22 O3  :2pz    0.0034  -0.0008  -0.0029   0.0134   0.0171  -0.0504  -0.0163
  23 O3  :2pz   -0.0083   0.0023  -0.0322  -0.2243  -0.2614   0.1070   0.1470
  26 O3  :3d1-  -0.0151   0.0051   0.0234  -0.0009   0.0033   0.0277  -0.0045
  27 O3  :3d1+   0.0080  -0.0024  -0.0123   0.0056  -0.0027  -0.0005   0.0151
  31 O7  :2pz    0.5272  -0.4637   0.5452  -0.1992  -0.2542   0.0954   0.1122
  32 O7  :2pz    0.0051  -0.0039   0.0008   0.0072   0.0148   0.0260   0.0216
  33 O7  :2pz    0.0010  -0.0183   0.0536  -0.1130  -0.1651   0.0376   0.1950
  36 O7  :3d1-   0.0171  -0.0126   0.0099   0.0095   0.0085  -0.0036   0.0227
  37 O7  :3d1+   0.0027   0.0011  -0.0030   0.0080   0.0123  -0.0007   0.0126
  41 H4  :2pz    0.0023   0.0045   0.0004   0.0087  -0.0096   0.0159   0.0038
  42 H4  :2pz    0.0053   0.0094  -0.0001  -0.0327   0.0351   0.0560   0.0254
  44 H4  :3d1+  -0.0005  -0.0006   0.0003  -0.0019   0.0001  -0.0126   0.0025
  45 H5  :1s     0.2705   0.5132   0.1156  -0.1891  -0.1027  -0.0784   0.0010
  46 H5  :1s    -0.0316  -0.0637   0.0026  -0.1579   0.0750  -1.8189  -0.1619
  47 H5  :1s    -0.0691  -0.1256   0.0056  -1.3833   2.0216  -0.9212   0.2219
  49 H5  :2py    0.0040   0.0071   0.0013   0.0077  -0.0146  -0.0093  -0.0010
  50 H5  :2pz   -0.0039  -0.0069  -0.0018  -0.0047   0.0126   0.0318   0.0078
  51 H5  :2px   -0.0050  -0.0046  -0.0058   0.0198  -0.0683   0.2307   0.0885
  52 H5  :2py    0.0072   0.0119   0.0044  -0.0670   0.0983  -0.2198   0.0315
  53 H5  :2pz   -0.0054  -0.0067  -0.0050   0.0830  -0.1047   0.3544  -0.0678
  55 H5  :3d1-  -0.0015  -0.0025  -0.0007   0.0057  -0.0057   0.0309  -0.0063
  56 H5  :3d0    0.0001   0.0005   0.0004  -0.0036   0.0027  -0.0164   0.0028
  57 H5  :3d1+   0.0010   0.0013   0.0003  -0.0029   0.0039  -0.0197  -0.0044
  60 H8  :2pz    0.0158  -0.0143   0.0145  -0.0230  -0.0229   0.0119  -0.0977

    Orbital         8        9       10       11       12       13
   1 C1  :2pz    0.8130   0.1235   0.1295   0.1048  -0.0796   0.1014
   2 C1  :2pz   -0.8727  -0.0815  -0.1098   0.1456  -0.0912   0.2511
   3 C1  :2pz   -2.9748  -1.2272  -0.8441  -0.5461   0.3988   0.8170
   4 C1  :3d1-   0.0450   0.0036  -0.0099   0.0132   0.0071   0.0053
   5 C1  :3d1+  -0.0320   0.0203  -0.0019   0.0065  -0.0070  -0.0030
   6 C1  :3d1-   0.7863   0.2080   0.2693  -0.3295  -0.1107  -0.5785
   7 C1  :3d1+  -0.3413  -0.1671  -0.0505   0.3224   0.1776   0.1369
   8 C1  :4f2-   0.0287   0.0210   0.0097  -0.0209  -0.0048  -0.0520
   9 C1  :4f0   -0.0080  -0.0036  -0.0023   0.0055   0.0321  -0.0209
  10 C1  :4f2+   0.0252   0.0054  -0.0026  -0.0136   0.0015   0.0033
  11 C2  :2pz   -0.1764   0.2326  -0.0435  -0.0910   0.2649  -0.0017
  12 C2  :2pz    0.0271  -0.0318  -0.0528   0.0149  -0.1777   0.0915
  13 C2  :2pz    0.1825   0.5280   0.3807   0.8634  -1.2885  -0.6249
  15 C2  :3d1+   0.0010   0.0061   0.0028  -0.0173  -0.0125   0.0124
  16 C2  :3d1-   0.0568   0.1460  -0.6211  -0.0083  -0.2921  -0.7952
  17 C2  :3d1+   0.2344  -0.4791   0.0360  -0.1860   0.4897  -0.5044
  18 C2  :4f2-  -0.0197   0.0153   0.0604  -0.0186   0.0171   0.0128
  19 C2  :4f0   -0.0051   0.0017   0.0021  -0.0173   0.0382  -0.0030
  20 C2  :4f2+   0.0080  -0.0008   0.0035  -0.0137   0.0346   0.0190
  21 O3  :2pz    0.0965  -0.2164  -0.2796   0.2178  -0.3771   0.0543
  22 O3  :2pz    0.0092  -0.0938  -0.1487   0.1796  -0.2667   0.0167
  23 O3  :2pz    0.0456  -0.1364   0.9599  -0.8353   1.6003   0.4456
  24 O3  :3d1-   0.0026  -0.0082   0.0156  -0.0089   0.0203   0.0074
  25 O3  :3d1+  -0.0003   0.0017  -0.0120   0.0028  -0.0086  -0.0080
  26 O3  :3d1-   0.0093  -0.0011  -0.0603   0.0172  -0.0731  -0.0661
  27 O3  :3d1+  -0.0061  -0.0273   0.0526  -0.0401   0.0396  -0.0837
  31 O7  :2pz    0.0033  -0.1007   0.4600   0.0076  -0.3211  -0.2374
  32 O7  :2pz   -0.0254  -0.0162   0.3402   0.0475  -0.2512  -0.1453
  33 O7  :2pz    0.2023  -0.4183  -1.4251   0.2838   1.3186  -0.2305
  34 O7  :3d1-  -0.0058   0.0071   0.0169   0.0002  -0.0104   0.0161
  35 O7  :3d1+  -0.0022  -0.0093   0.0091   0.0216   0.0099   0.0014
  36 O7  :3d1-   0.0008   0.0186  -0.0343   0.0076   0.0086   0.0083
  37 O7  :3d1+   0.0012  -0.0095  -0.0124  -0.0222  -0.0010   0.0214
  41 H4  :2pz   -0.0149  -0.0249   0.0020  -0.0115  -0.0221  -0.0032
  42 H4  :2pz    0.1942   0.3057  -0.0825   0.2593   0.3043   0.1693
  43 H4  :3d1-  -0.0095  -0.0129   0.0073  -0.0173  -0.0091  -0.0205
  44 H4  :3d1+   0.0030   0.0114   0.0077  -0.0016  -0.0085  -0.0022
  45 H5  :1s    -0.4227   0.0428   0.0002   0.0010  -0.0394  -0.0792
  46 H5  :1s     1.0144   0.4141   0.2263  -0.2798  -0.0265  -0.7850
  47 H5  :1s     2.4367   0.5620   0.5632   0.1345  -0.1241  -0.0223
  48 H5  :2px    0.0061  -0.0321  -0.0112  -0.0041  -0.0070   0.0235
  49 H5  :2py   -0.0083  -0.0130   0.0009  -0.0159   0.0102  -0.0199
  50 H5  :2pz   -0.0005  -0.0030  -0.0034   0.0150   0.0145   0.0102
  51 H5  :2px   -0.3034   0.4096   0.0362   0.1559   0.0970  -0.2863
  52 H5  :2py    0.5029   0.2583   0.0599   0.1411  -0.1575   0.1251
  53 H5  :2pz   -0.5956  -0.1393  -0.0908  -0.0072  -0.1413   0.1957
  54 H5  :3d2-  -0.0123   0.0104  -0.0001  -0.0003   0.0064  -0.0046
  55 H5  :3d1-  -0.0372  -0.0084  -0.0016  -0.0017  -0.0022   0.0047
  56 H5  :3d0    0.0173   0.0056   0.0034  -0.0074   0.0014  -0.0166
  57 H5  :3d1+   0.0222  -0.0036   0.0000   0.0025   0.0065   0.0044
  58 H5  :3d2+  -0.0052  -0.0138   0.0014  -0.0043   0.0070  -0.0033
  59 H8  :2pz    0.0017  -0.0404   0.0113   0.0629   0.0163  -0.0285
  60 H8  :2pz   -0.0130   0.5034  -0.1169  -0.9720  -0.3779   0.3695
  61 H8  :3d1-  -0.0035   0.0053   0.0105   0.0079  -0.0008   0.0165
  62 H8  :3d1+  -0.0023   0.0200   0.0122  -0.0321  -0.0262   0.0148

  Total CPU  time used in SIRIUS :  16.02 seconds
  Total wall time used in SIRIUS :  16.03 seconds

 
     Date and time (Linux)  : Mon May  4 22:35:06 2026
     Host name              : debian                                  


                     .---------------------------------------.
                     | End of Wave Function Section (SIRIUS) |
                     `---------------------------------------'

  Total CPU  time used in DALTON:  16.35 seconds
  Total wall time used in DALTON:  16.36 seconds

 
     Date and time (Linux)  : Mon May  4 22:35:06 2026
     Host name              : debian                                  
