 argument  1 = ccl2o_dft_b3lyp_ccpvdz.nw
                                         
                                         


             Northwest Computational Chemistry Package (NWChem) 7.2.3
             --------------------------------------------------------


                    Environmental Molecular Sciences Laboratory
                       Pacific Northwest National Laboratory
                                Richland, WA 99352

                              Copyright (c) 1994-2022
                       Pacific Northwest National Laboratory
                            Battelle Memorial Institute

             NWChem is an open-source computational chemistry package
                        distributed under the terms of the
                      Educational Community License (ECL) 2.0
             A copy of the license is included with this distribution
                              in the LICENSE.TXT file

                                  ACKNOWLEDGMENT
                                  --------------

            This software and its documentation were developed at the
            EMSL at Pacific Northwest National Laboratory, a multiprogram
            national laboratory, operated for the U.S. Department of Energy
            by Battelle under Contract Number DE-AC05-76RL01830. Support
            for this work was provided by the Department of Energy Office
            of Biological and Environmental Research, Office of Basic
            Energy Sciences, and the Office of Advanced Scientific Computing.


           Job information
           ---------------

    hostname        = debian
    program         = nwchem
    date            = Tue May  5 13:49:00 2026

    compiled        = Mon_May_12_21:20:53_2025
    source          = /build/reproducible-path/nwchem-7.2.3/build-openmpi
    nwchem branch   = 7.2.3
    nwchem revision = N/A
    ga revision     = N/A
    use scalapack   = T
    input           = ccl2o_dft_b3lyp_ccpvdz.nw
    prefix          = phosgene.
    data base       = ./phosgene.db
    status          = startup
    nproc           =        1
    time left       =     -1s



           Memory information
           ------------------

    heap     =   32768000 doubles =    250.0 Mbytes
    stack    =   32767997 doubles =    250.0 Mbytes
    global   =   65536000 doubles =    500.0 Mbytes (distinct from heap & stack)
    total    =  131071997 doubles =   1000.0 Mbytes
    verify   = yes
    hardfail = no 


           Directory information
           ---------------------

  0 permanent = .
  0 scratch   = .




                                NWChem Input Module
                                -------------------



 Scaling coordinates for geometry "geometry" by  1.889725989
 (inverse scale =  0.529177249)

  zeroes
  zeroes
  zeroes
  zeroes
  zeroes
  zeroes
  zeroes
  zeroes
  zeroes
  zeroes
  zeroes
  zeroes
  zeroes
  zeroes
  zeroes
  zeroes
  zeroes
  zeroes
  zeroes
  zeroes
  zeroes
  zeroes
  zeroes
  zeroes
  zeroes
  zeroes
  zeroes
  zeroes
  zeroes
  zeroes
  zeroes
  zeroes
  zeroes
  zeroes
  zeroes
  zeroes
  zeroes
  zeroes
  zeroes
  zeroes
  zeroes
  zeroes
  zeroes
  zeroes
  zeroes
  zeroes
  zeroes
  zeroes
 CS  symmetry detected

          ------
          auto-z
          ------
  Looking for out-of-plane bends
  no constraints, skipping    0.0000000000000000     
  no constraints, skipping    0.0000000000000000     


                             Geometry "geometry" -> ""
                             -------------------------

 Output coordinates in angstroms (scale by  1.889725989 to convert to a.u.)

  No.       Tag          Charge          X              Y              Z
 ---- ---------------- ---------- -------------- -------------- --------------
    1 O1                   8.0000     1.68729167     0.00000000     0.00000000
    2 C2                   6.0000     0.50829167     0.00000000     0.00000000
    3 Cl3                 17.0000    -0.48670833    -1.46400000     0.00000000
    4 Cl4                 17.0000    -0.48670833     1.46400000     0.00000000

      Atomic Mass 
      ----------- 

      O1                15.994910
      C2                12.000000
      Cl3               34.968850
      Cl4               34.968850


 Effective nuclear repulsion energy (a.u.)     189.6776864664

            Nuclear Dipole moment (a.u.) 
            ----------------------------
        X                 Y               Z
 ---------------- ---------------- ----------------
     0.0000000000     0.0000000000     0.0000000000

      Symmetry information
      --------------------

 Group name             Cs        
 Group number              2
 Group order               2
 No. of unique centers     4

      Symmetry unique atoms

     1    2    3    4



                                Z-matrix (autoz)
                                -------- 

 Units are Angstrom for bonds and degrees for angles

      Type          Name      I     J     K     L     M      Value
      ----------- --------  ----- ----- ----- ----- ----- ----------
    1 Stretch                  1     2                       1.17900
    2 Stretch                  2     3                       1.77012
    3 Stretch                  2     4                       1.77012
    4 Bend                     1     2     3               124.20178
    5 Bend                     1     2     4               124.20178
    6 Bend                     3     2     4               111.59643
    7 Torsion                  1     2     3     4         180.00000
    8 Torsion                  1     2     4     3         180.00000
    9 Torsion                  3     2     1     4         180.00000
   10 Torsion                  1     4     2     3         180.00000
   11 Torsion                  3     1     2     4         180.00000
   12 Torsion                  1     3     2     4         180.00000


            XYZ format geometry
            -------------------
     4
 geometry
 O1                    1.68729167     0.00000000     0.00000000
 C2                    0.50829167     0.00000000     0.00000000
 Cl3                  -0.48670833    -1.46400000     0.00000000
 Cl4                  -0.48670833     1.46400000     0.00000000

 ==============================================================================
                                internuclear distances
 ------------------------------------------------------------------------------
       center one      |      center two      | atomic units |  angstroms
 ------------------------------------------------------------------------------
    2 C2               |   1 O1               |     2.22799  |     1.17900
    3 Cl3              |   2 C2               |     3.34504  |     1.77012
    4 Cl4              |   2 C2               |     3.34504  |     1.77012
 ------------------------------------------------------------------------------
                         number of included internuclear distances:          3
 ==============================================================================



 ==============================================================================
                                 internuclear angles
 ------------------------------------------------------------------------------
        center 1       |       center 2       |       center 3       |  degrees
 ------------------------------------------------------------------------------
    1 O1               |   2 C2               |   3 Cl3              |   124.20
    1 O1               |   2 C2               |   4 Cl4              |   124.20
    3 Cl3              |   2 C2               |   4 Cl4              |   111.60
 ------------------------------------------------------------------------------
                            number of included internuclear angles:          3
 ==============================================================================



                      Basis "ao basis" -> "" (cartesian)
                      -----
  O (Oxygen)
  ----------
            Exponent  Coefficients 
       -------------- ---------------------------------------------------------
  1 S  1.17200000E+04  0.000710
  1 S  1.75900000E+03  0.005470
  1 S  4.00800000E+02  0.027837
  1 S  1.13700000E+02  0.104800
  1 S  3.70300000E+01  0.283062
  1 S  1.32700000E+01  0.448719
  1 S  5.02500000E+00  0.270952
  1 S  1.01300000E+00  0.015458

  2 S  1.17200000E+04 -0.000160
  2 S  1.75900000E+03 -0.001263
  2 S  4.00800000E+02 -0.006267
  2 S  1.13700000E+02 -0.025716
  2 S  3.70300000E+01 -0.070924
  2 S  1.32700000E+01 -0.165411
  2 S  5.02500000E+00 -0.116955
  2 S  1.01300000E+00  0.557368

  3 S  3.02300000E-01  1.000000

  4 P  1.77000000E+01  0.043018
  4 P  3.85400000E+00  0.228913
  4 P  1.04600000E+00  0.508728

  5 P  2.75300000E-01  1.000000

  6 D  1.18500000E+00  1.000000

  C (Carbon)
  ----------
            Exponent  Coefficients 
       -------------- ---------------------------------------------------------
  1 S  6.66500000E+03  0.000692
  1 S  1.00000000E+03  0.005329
  1 S  2.28000000E+02  0.027077
  1 S  6.47100000E+01  0.101718
  1 S  2.10600000E+01  0.274740
  1 S  7.49500000E+00  0.448564
  1 S  2.79700000E+00  0.285074
  1 S  5.21500000E-01  0.015204

  2 S  6.66500000E+03 -0.000146
  2 S  1.00000000E+03 -0.001154
  2 S  2.28000000E+02 -0.005725
  2 S  6.47100000E+01 -0.023312
  2 S  2.10600000E+01 -0.063955
  2 S  7.49500000E+00 -0.149981
  2 S  2.79700000E+00 -0.127262
  2 S  5.21500000E-01  0.544529

  3 S  1.59600000E-01  1.000000

  4 P  9.43900000E+00  0.038109
  4 P  2.00200000E+00  0.209480
  4 P  5.45600000E-01  0.508557

  5 P  1.51700000E-01  1.000000

  6 D  5.50000000E-01  1.000000

  Cl (Chlorine)
  -------------
            Exponent  Coefficients 
       -------------- ---------------------------------------------------------
  1 S  1.27900000E+05  0.000241
  1 S  1.91700000E+04  0.001871
  1 S  4.36300000E+03  0.009708
  1 S  1.23600000E+03  0.039315
  1 S  4.03600000E+02  0.125932
  1 S  1.45700000E+02  0.299341
  1 S  5.68100000E+01  0.421886
  1 S  2.32300000E+01  0.237201
  1 S  6.64400000E+00  0.019153
  1 S  2.57500000E+00 -0.003348
  1 S  5.37100000E-01  0.000930

  2 S  1.27900000E+05 -0.000068
  2 S  1.91700000E+04 -0.000522
  2 S  4.36300000E+03 -0.002765
  2 S  1.23600000E+03 -0.011154
  2 S  4.03600000E+02 -0.038592
  2 S  1.45700000E+02 -0.099485
  2 S  5.68100000E+01 -0.201392
  2 S  2.32300000E+01 -0.130313
  2 S  6.64400000E+00  0.509443
  2 S  2.57500000E+00  0.610725
  2 S  5.37100000E-01  0.042155

  3 S  1.27900000E+05  0.000020
  3 S  1.91700000E+04  0.000158
  3 S  4.36300000E+03  0.000834
  3 S  1.23600000E+03  0.003399
  3 S  4.03600000E+02  0.011674
  3 S  1.45700000E+02  0.030962
  3 S  5.68100000E+01  0.062953
  3 S  2.32300000E+01  0.046026
  3 S  6.64400000E+00 -0.219312
  3 S  2.57500000E+00 -0.408773
  3 S  5.37100000E-01  0.638465

  4 S  1.93800000E-01  1.000000

  5 P  4.17600000E+02  0.005260
  5 P  9.83300000E+01  0.039833
  5 P  3.10400000E+01  0.164655
  5 P  1.11900000E+01  0.387322
  5 P  4.24900000E+00  0.457072
  5 P  1.62400000E+00  0.151636
  5 P  5.32200000E-01  0.001816

  6 P  4.17600000E+02 -0.001436
  6 P  9.83300000E+01 -0.010780
  6 P  3.10400000E+01 -0.047008
  6 P  1.11900000E+01 -0.111030
  6 P  4.24900000E+00 -0.153275
  6 P  1.62400000E+00  0.089461
  6 P  5.32200000E-01  0.579444

  7 P  1.62000000E-01  1.000000

  8 D  6.00000000E-01  1.000000



 Summary of "ao basis" -> "" (cartesian)
 ------------------------------------------------------------------------------
       Tag                 Description            Shells   Functions and Types
 ---------------- ------------------------------  ------  ---------------------
 O                          cc-pvdz                  6       15   3s2p1d
 C                          cc-pvdz                  6       15   3s2p1d
 Cl                         cc-pvdz                  8       19   4s3p1d



                                 NWChem DFT Module
                                 -----------------



  Caching 1-el integrals 
  WARNING: movecs_in_org=atomic not equal to movecs_in=./phosgene.movecs
   Time after variat. SCF:      2.2
   Time prior to 1st pass:      2.2

           Memory utilization after 1st SCF pass: 
           Heap Space remaining (MW):       28.17            28172120
          Stack Space remaining (MW):       32.77            32767508

   convergence    iter        energy       DeltaE   RMS-Dens  Diis-err    time
 ---------------- ----- ----------------- --------- --------- ---------  ------
 d= 0,ls=0.0,diis     1  -1033.5825854149 -1.22D+03  2.83D-02  1.74D+00     6.0
 d= 0,ls=0.0,diis     2  -1032.9294334905  6.53D-01  1.97D-02  8.73D+00     6.3
 d= 0,ls=0.0,diis     3  -1033.7579330798 -8.28D-01  6.30D-03  1.50D-01     6.6
 d= 0,ls=0.0,diis     4  -1033.7643811549 -6.45D-03  3.04D-03  8.63D-02     6.9
 d= 0,ls=0.0,diis     5  -1033.7746220044 -1.02D-02  2.69D-04  5.05D-04     7.2
  Resetting Diis
 d= 0,ls=0.0,diis     6  -1033.7746868484 -6.48D-05  4.24D-05  1.34D-05     7.5
 d= 0,ls=0.0,diis     7  -1033.7746884079 -1.56D-06  1.93D-05  6.72D-07     7.9
 d= 0,ls=0.0,diis     8  -1033.7746883936  1.43D-08  1.10D-05  9.50D-07     8.2
 d= 0,ls=0.0,diis     9  -1033.7746884780 -8.44D-08  3.25D-06  1.82D-07     8.5


         Total DFT energy =    -1033.774688478027
      One electron energy =    -1802.100861251745
           Coulomb energy =      649.118089859678
    Exchange-Corr. energy =      -70.469603552372
 Nuclear repulsion energy =      189.677686466410

 Numeric. integr. density =       48.000000367261

     Total iterative time =      6.3s



                  Occupations of the irreducible representations
                  ----------------------------------------------

                     irrep           alpha         beta
                     --------     --------     --------
                     a'               19.0         19.0
                     a"                5.0          5.0


 Task  times  cpu:       22.0s     wall:        8.5s
 Summary of allocated global arrays
-----------------------------------
  No active global arrays


MA_summarize_allocated_blocks: starting scan ...
MA_summarize_allocated_blocks: scan completed: 0 heap blocks, 0 stack blocks
MA usage statistics:

	allocation statistics:
					      heap	     stack
					      ----	     -----
	current number of blocks	         0	         0
	maximum number of blocks	        22	        57
	current total bytes		         0	         0
	maximum total bytes		  36766928	  22512584
	maximum total K-bytes		     36767	     22513
	maximum total M-bytes		        37	        23


                                NWChem Input Module
                                -------------------




                                     CITATION
                                     --------
                Please cite the following reference when publishing
                           results obtained with NWChem:

          E. Apra, E. J. Bylaska, W. A. de Jong, N. Govind, K. Kowalski,
       T. P. Straatsma, M. Valiev, H. J. J. van Dam, Y. Alexeev, J. Anchell,
       V. Anisimov, F. W. Aquino, R. Atta-Fynn, J. Autschbach, N. P. Bauman,
     J. C. Becca, D. E. Bernholdt, K. Bhaskaran-Nair, S. Bogatko, P. Borowski,
         J. Boschen, J. Brabec, A. Bruner, E. Cauet, Y. Chen, G. N. Chuev,
      C. J. Cramer, J. Daily, M. J. O. Deegan, T. H. Dunning Jr., M. Dupuis,
   K. G. Dyall, G. I. Fann, S. A. Fischer, A. Fonari, H. Fruchtl, L. Gagliardi,
      J. Garza, N. Gawande, S. Ghosh, K. Glaesemann, A. W. Gotz, J. Hammond,
       V. Helms, E. D. Hermes, K. Hirao, S. Hirata, M. Jacquelin, L. Jensen,
   B. G. Johnson, H. Jonsson, R. A. Kendall, M. Klemm, R. Kobayashi, V. Konkov,
      S. Krishnamoorthy, M. Krishnan, Z. Lin, R. D. Lins, R. J. Littlefield,
      A. J. Logsdail, K. Lopata, W. Ma, A. V. Marenich, J. Martin del Campo,
   D. Mejia-Rodriguez, J. E. Moore, J. M. Mullin, T. Nakajima, D. R. Nascimento,
    J. A. Nichols, P. J. Nichols, J. Nieplocha, A. Otero-de-la-Roza, B. Palmer,
    A. Panyala, T. Pirojsirikul, B. Peng, R. Peverati, J. Pittner, L. Pollack,
   R. M. Richard, P. Sadayappan, G. C. Schatz, W. A. Shelton, D. W. Silverstein,
   D. M. A. Smith, T. A. Soares, D. Song, M. Swart, H. L. Taylor, G. S. Thomas,
            V. Tipparaju, D. G. Truhlar, K. Tsemekhman, T. Van Voorhis,
      A. Vazquez-Mayagoitia, P. Verma, O. Villa, A. Vishnu, K. D. Vogiatzis,
        D. Wang, J. H. Weare, M. J. Williamson, T. L. Windus, K. Wolinski,
        A. T. Wong, Q. Wu, C. Yang, Q. Yu, M. Zacharias, Z. Zhang, Y. Zhao,
                                and R. J. Harrison
                        "NWChem: Past, present, and future
                         J. Chem. Phys. 152, 184102 (2020)
                               doi:10.1063/5.0004997

                                      AUTHORS
                                      -------
  E. Apra, E. J. Bylaska, N. Govind, K. Kowalski, M. Valiev, D. Mejia-Rodriguez,
       A. Kunitsa, N. P. Bauman, A. Panyala, W. A. de Jong, T. P. Straatsma,
   H. J. J. van Dam, D. Wang, T. L. Windus, J. Hammond, J. Autschbach, A. Woods,
    K. Bhaskaran-Nair, J. Brabec, K. Lopata, S. A. Fischer, S. Krishnamoorthy,
     M. Jacquelin, W. Ma, M. Klemm, O. Villa, Y. Chen, V. Anisimov, F. Aquino,
     S. Hirata, M. T. Hackler, E. Hermes, L. Jensen, J. E. Moore, J. C. Becca,
      V. Konjkov, T. Risthaus, M. Malagoli, A. Marenich, A. Otero-de-la-Roza,
        J. Mullin, P. Nichols, R. Peverati, J. Pittner, Y. Zhao, P.-D. Fan,
        A. Fonari, M. J. Williamson, R. J. Harrison, J. R. Rehr, M. Dupuis,
     D. Silverstein, D. M. A. Smith, J. Nieplocha, V. Tipparaju, M. Krishnan,
     B. E. Van Kuiken, A. Vazquez-Mayagoitia, M. Swart, Q. Wu, T. Van Voorhis,
     A. A. Auer, M. Nooijen, L. D. Crosby, E. Brown, G. Cisneros, G. I. Fann,
   H. Fruchtl, J. Garza, K. Hirao, R. A. Kendall, J. A. Nichols, K. Tsemekhman,
    K. Wolinski, J. Anchell, D. E. Bernholdt, P. Borowski, T. Clark, D. Clerc,
   H. Dachsel, M. J. O. Deegan, K. Dyall, D. Elwood, E. Glendening, M. Gutowski,
   A. C. Hess, J. Jaffe, B. G. Johnson, J. Ju, R. Kobayashi, R. Kutteh, Z. Lin,
   R. Littlefield, X. Long, B. Meng, T. Nakajima, S. Niu, L. Pollack, M. Rosing,
   K. Glaesemann, G. Sandrone, M. Stave, H. Taylor, G. Thomas, J. H. van Lenthe,
                               A. T. Wong, Z. Zhang.

 Total times  cpu:       22.1s     wall:        8.5s
