

     ************************************************************************
     *************** Dalton - An Electronic Structure Program ***************
     ************************************************************************

    This is output from DALTON release Dalton2025.0-dev (2025)
         ( Web site: http://daltonprogram.org )

   ----------------------------------------------------------------------------

    NOTE:
     
    Dalton is an experimental code for the evaluation of molecular
    properties using (MC)SCF, DFT, CI, and CC wave functions.
    The authors accept no responsibility for the performance of
    the code or for the correctness of the results.
     
    The code (in whole or part) is provided under a licence and
    is not to be reproduced for further distribution without
    the written permission of the authors or their representatives.
     
    See the home page "http://daltonprogram.org" for further information.
     
    If results obtained with this code are published,
    the appropriate citations would be both of:
     
       K. Aidas, C. Angeli, K. L. Bak, V. Bakken,
       R. Bast, L. Boman, O. Christiansen, R. Cimiraglia,
       S. Coriani, P. Dahle, E. K. Dalskov, U. Ekstroem,
       T. Enevoldsen, J. J. Eriksen, P. Ettenhuber, B. Fernandez,
       L. Ferrighi, H. Fliegl, L. Frediani, K. Hald, A. Halkier,
       C. Haettig, H. Heiberg, T. Helgaker, A. C. Hennum,
       H. Hettema, E. Hjertenaes, S. Hoest, I.-M. Hoeyvik,
       M. F. Iozzi, B. Jansik, H. J. Aa. Jensen, D. Jonsson,
       P. Joergensen, J. Kauczor, S. Kirpekar,
       T. Kjaergaard, W. Klopper, S. Knecht, R. Kobayashi, H. Koch,
       J. Kongsted, A. Krapp, K. Kristensen, A. Ligabue,
       O. B. Lutnaes, J. I. Melo, K. V. Mikkelsen, R. H. Myhre,
       C. Neiss, C. B. Nielsen, P. Norman, J. Olsen,
       J. M. H. Olsen, A. Osted, M. J. Packer, F. Pawlowski,
       T. B. Pedersen, P. F. Provasi, S. Reine, Z. Rinkevicius,
       T. A. Ruden, K. Ruud, V. Rybkin, P. Salek, C. C. M. Samson,
       A. Sanchez de Meras, T. Saue, S. P. A. Sauer,
       B. Schimmelpfennig, K. Sneskov, A. H. Steindal,
       K. O. Sylvester-Hvid, P. R. Taylor, A. M. Teale,
       E. I. Tellgren, D. P. Tew, A. J. Thorvaldsen, L. Thoegersen,
       O. Vahtras, M. A. Watson, D. J. D. Wilson, M. Ziolkowski
       and H. Agren,
       "The Dalton quantum chemistry program system",
       WIREs Comput. Mol. Sci. 2014, 4:269-284 (doi: 10.1002/wcms.1172)
     
    and
     
       Dalton, a molecular electronic structure program,
       Release Dalton2025.0-dev (2025), see http://daltonprogram.org
   ----------------------------------------------------------------------------

    Authors in alphabetical order (Major contribution(s) in parenthesis):

  Kestutis Aidas,              Vilnius University,        Lithuania   (QM/MM)
  Celestino Angeli,            University of Ferrara,     Italy       (NEVPT2)
  Juan J. Aucar,               Northeast National UniversiArgentina   (LRESC, Relativistic Effects on NMR Shieldings and EFG)
  Keld L. Bak,                 UNI-C,                     Denmark     (AOSOPPA, non-adiabatic coupling, magnetic properties)
  Vebjoern Bakken,             University of Oslo,        Norway      (DALTON; geometry optimizer, symmetry detection)
  Radovan Bast,                UiT The Arctic U. of NorwayNorway      (DALTON installation and execution frameworks)
  Pablo Baudin,                University of Valencia,    Spain       (Cholesky excitation energies)
  Linus Boman,                 NTNU,                      Norway      (Cholesky decomposition and subsystems)
  Bruno N. Cabral Tenorio,     Technical Univ. of Denmark,Denmark     (Lanczos-based CC methods)
  Ove Christiansen,            Aarhus University,         Denmark     (CC module)
  Renzo Cimiraglia,            University of Ferrara,     Italy       (NEVPT2)
  Sonia Coriani,               Technical Univ. of Denmark,Denmark     (CC and RESPONS modules)
  Janusz Cukras,               University of Warsaw,      Poland      (MChD in RESPONS)
  Paal Dahle,                  University of Oslo,        Norway      (Parallelization)
  Erik K. Dalskov,             UNI-C,                     Denmark     (SOPPA)
  Thomas Enevoldsen,           Univ. of Southern Denmark, Denmark     (SOPPA)
  Janus J. Eriksen,            Aarhus University,         Denmark     (Polarizable embedding, TDA)
  Rasmus Faber,                Technical Univ. of Denmark,Denmark     (Vib.avg. NMR w. SOPPA, parallel AO-SOPPA, CVS-CC and EOMCC)
  Tobias Fahleson,             KTH Stockholm,             Sweden      (Damped cubic response)
  Berta Fernandez,             U. of Santiago de CompostelSpain       (Doublet spin, ESR in RESPONS)
  Lara Ferrighi,               Aarhus University,         Denmark     (PCM Cubic response)
  Heike Fliegl,                University of Oslo,        Norway      (CCSD(R12))
  Luca Frediani,               UiT The Arctic U. of NorwayNorway      (PCM)
  Emmanuel Fromager,           Univ. Strasbourg,          France      (MC-srDFT)
  Bin Gao,                     UiT The Arctic U. of NorwayNorway      (Gen1Int library)
  Andre S. P. Gomes,           CNRS/Universite de Lille,  France      (Frozen density embedding)
  Christof Haettig,            Ruhr-University Bochum,    Germany     (CC module)
  Kasper Hald,                 Aarhus University,         Denmark     (CC module)
  Asger Halkier,               Aarhus University,         Denmark     (CC module)
  Frederik Beyer Hansen,       University of Copenhagen,  Denmark     (Parallel AO-SOPPA)
  Erik D. Hedegaard,           Univ. of Southern Denmark, Denmark     (Polarizable embedding, QM/MM, and MC-srDFT)
  Hanne Heiberg,               University of Oslo,        Norway      (Geometry analysis, selected one-electron integrals)
  Trygve Helgaker,             University of Oslo,        Norway      (DALTON; ABACUS, ERI, DFT modules, London, and much more)
  Alf Christian Hennum,        University of Oslo,        Norway      (Parity violation)
  Hinne Hettema,               University of Auckland,    New Zealand (Quadratic response in RESPONS; SIRIUS supersymmetry)
  Andreas E. Hillers-Bendtsen, University of Copenhagen,  Denmark     (MP3)
  Eirik Hjertenaes,            NTNU,                      Norway      (Cholesky decomposition)
  Nicolai Machholdt Hoeyer,    Aarhus University,         Denmark     (MP3)
  Pi A. B. Haase,              University of Copenhagen,  Denmark     (Triplet AO-SOPPA)
  Maria Francesca Iozzi,       University of Oslo,        Norway      (RPA)
  Christoph Jacob,             TU Braunschweig            Germany     (Frozen density embedding)
  Brano Jansik,                Technical Univ. of Ostrava Czech Rep.  (DFT cubic response)
  Hans Joergen Aa. Jensen,     Univ. of Southern Denmark, Denmark     (DALTON; SIRIUS, RESPONS, ABACUS, MC-srDFT, and much more)
  Dan Jonsson,                 UiT The Arctic U. of NorwayNorway      (Cubic response in RESPONS module)
  Poul Joergensen,             Aarhus University,         Denmark     (RESPONS, ABACUS, and CC modules)
  Maciej Kaminski,             University of Warsaw,      Poland      (CPPh in RESPONS)
  Joanna Kauczor,              Linkoeping University,     Sweden      (Complex polarization propagator (CPP) module)
  Sheela Kirpekar,             Univ. of Southern Denmark, Denmark     (Mass-velocity & Darwin integrals)
  Frederik Oersted Kjeldal,    Technical Univ. of Denmark,Denmark     (MP3)
  Erik Kjellgren,              Univ. of Southern Denmark, Denmark     (MC-srDFT)
  Wim Klopper,                 KIT Karlsruhe,             Germany     (R12 code in CC, SIRIUS, and ABACUS modules)
  Stefan Knecht,               ETH Zurich,                Switzerland (Parallel CI and MCSCF, MC-srDFT)
  Rika Kobayashi,              Australian National Univ., Australia   (DIIS in CC, London in MCSCF)
  Henrik Koch,                 NTNU,                      Norway      (CC module, Cholesky decomposition)
  Jacob Kongsted,              Univ. of Southern Denmark, Denmark     (Polarizable embedding, polarizable density embedding, QM/MM)
  Andrea Ligabue,              University of Modena,      Italy       (CTOCD, AOSOPPA)
  Nanna H. List,               Univ. of Southern Denmark, Denmark     (Polarizable embedding)
  Ola B. Lutnaes,              University of Oslo,        Norway      (DFT Hessian)
  Juan I. Melo,                University of Buenos Aires,Argentina   (LRESC, Relativistic Effects on NMR Shieldings)
  Kurt V. Mikkelsen,           University of Copenhagen,  Denmark     (MC-SCRF, QM/MM, and MP3)
  Rolf H. Myhre,               NTNU,                      Norway      (Subsystems and CC3)
  Christian Neiss,             Univ. Erlangen-Nuernberg,  Germany     (CCSD(R12))
  Christian B. Nielsen,        University of Copenhagen,  Denmark     (QM/MM)
  Patrick Norman,              KTH Stockholm,             Sweden      (Cubic response and complex frequency response in RESPONS)
  Jeppe Olsen,                 Aarhus University,         Denmark     (SIRIUS CI/density modules)
  Jogvan Magnus H. Olsen,      Aarhus University,         Denmark     (Polarizable embedding and polarizable density embedding)
  Anders Osted,                Copenhagen University,     Denmark     (QM/MM)
  Martin J. Packer,            University of Sheffield,   UK          (SOPPA)
  Filip Pawlowski,             Kazimierz Wielki UniversityPoland      (CC3)
  Morten N. Pedersen,          Univ. of Southern Denmark, Denmark     (Polarizable embedding)
  Thomas B. Pedersen,          University of Oslo,        Norway      (Cholesky decomposition)
  Patricio F. Provasi,         University of Northeastern,Argentina   (Analysis of coupling constants in localized orbitals)
  Peter Reinholdt,             Univ. of Southern Denmark, Denmark     (Polarizable embedding and polarizable density embedding)
  Zilvinas Rinkevicius,        KTH Stockholm,             Sweden      (open-shell DFT, ESR)
  Elias Rudberg,               KTH Stockholm,             Sweden      (DFT grid and basis info)
  Torgeir A. Ruden,            University of Oslo,        Norway      (Numerical derivatives in ABACUS)
  Kenneth Ruud,                UiT The Arctic U. of NorwayNorway      (DALTON; ABACUS magnetic properties and much more)
  Pawel Salek,                 KTH Stockholm,             Sweden      (DALTON; DFT code)
  Claire C. M. Samson,         University of Karlsruhe    Germany     (Boys localization, r12 integrals in ERI)
  Alfredo Sanchez de Meras,    University of Valencia,    Spain       (CC module, Cholesky decomposition)
  Trond Saue,                  Paul Sabatier University,  France      (direct Fock matrix construction)
  Stephan P. A. Sauer,         University of Copenhagen,  Denmark     (SOPPA(CCSD), SOPPA prop., AOSOPPA, vibrational g-factors)
  Bernd Schimmelpfennig,       Forschungszentrum KarlsruheGermany     (AMFI module)
  Anna K. Schnack-Petersen,    University of Copenhagen,  Denmark     (RPA(D) and HRPA(D) properties in AOSOPPA)
  Kristian Sneskov,            Aarhus University,         Denmark     (Polarizable embedding, QM/MM)
  Arnfinn H. Steindal,         UiT The Arctic U. of NorwayNorway      (parallel QM/MM, polarizable embedding)
  Casper Steinmann,            Aalborg University,        Denmark     (QFIT, polarizable embedding)
  K. O. Sylvester-Hvid,        University of Copenhagen,  Denmark     (MC-SCRF)
  Peter R. Taylor,             VLSCI/Univ. of Melbourne,  Australia   (Symmetry handling ABACUS, integral transformation)
  Andrew M. Teale,             University of Nottingham,  England     (DFT-AC, DFT-D)
  David P. Tew,                University of Bristol,     England     (CCSD(R12))
  Julien Toulouse,             Sorbonne Univ.,            France      (MC-srDFT)
  Olav Vahtras,                KTH Stockholm,             Sweden      (Triplet response, spin-orbit, ESR, TDDFT, open-shell DFT)
  Lucas Visscher,              Vrije Universiteit AmsterdaNetherlands (Frozen density embedding)
  David J. Wilson,             La Trobe University,       Australia   (DFT Hessian and DFT magnetizabilities)
  Luna Zamok,                  University of Copenhagen,  Denmark     (Block Lanczos RPA solver in SOPPA module)
  Hans Agren,                  KTH Stockholm,             Sweden      (SIRIUS module, RESPONS, MC-SCRF solvation)
 --------------------------------------------------------------------------------

     Date and time (Linux)  : Mon May  4 21:45:49 2026
     Host name              : debian                                  

 * Work memory size             :    64000000 =  488.28 megabytes.

 * Directories for basis set searches:
   1) /home/vdwv/DIPLOM_ITMO/CALCULATIONS_AND_SOFTS/softwares/Dalton_Shenanigans/dalton/dalton/build
   2) /home/vdwv/DIPLOM_ITMO/CALCULATIONS_AND_SOFTS/softwares/Dalton_Shenanigans/dalton/dalton/build/basis


Compilation information
-----------------------

 Who compiled             | vdwv
 Host                     | debian
 System                   | Linux-6.12.73+deb13-amd64
 CMake generator          | Unix Makefiles
 Processor                | x86_64
 64-bit integers          | OFF
 MPI                      | OFF
 Fortran compiler         | /usr/bin/gfortran
 Fortran compiler version | GNU Fortran (Debian 14.2.0-19) 14.2.0
 C compiler               | /usr/bin/gcc
 C compiler version       | gcc (Debian 14.2.0-19) 14.2.0
 C++ compiler             | /usr/bin/g++
 C++ compiler version     | g++ (Debian 14.2.0-19) 14.2.0
 BLAS                     | /opt/intel/oneapi/mkl/2025.3/lib/intel64/libmkl_gf
                          | _lp64.so;/opt/intel/oneapi/mkl/2025.3/lib/intel64/
                          | libmkl_sequential.so;/opt/intel/oneapi/mkl/2025.3/
                          | lib/intel64/libmkl_core.so;/usr/lib/x86_64-linux-g
                          | nu/libpthread.a;/usr/lib/x86_64-linux-gnu/libm.so
 LAPACK                   | /opt/intel/oneapi/mkl/2025.3/lib/intel64/libmkl_la
                          | pack95_lp64.a;/opt/intel/oneapi/mkl/2025.3/lib/int
                          | el64/libmkl_gf_lp64.so
 Static linking           | OFF
 Last Git revision        | 1892235f9264b9be21ec2fefe6e0081d659ab244
 Git branch               | master
 Configuration time       | 2026-05-04 17:50:26.788788

 * Sequential calculation.


   Content of the .dal input file
 ----------------------------------

BASIS
6-31G
Phosgene CCl2O using the 6-31G basis
Using automatic symmetry detection
AtomTypes=3 Angstrom
Charge=8.0 Atoms=1
O      0.000      0.000      1.680
Charge=6.0 Atoms=1
C      0.000      0.000      0.505
Charge=17.0 Atoms=2
Cl1    0.000      1.496     -0.484
Cl2    0.000     -1.496     -0.484

**DALTON INPUT
.RUN WAVE FUN
**WAVE FUN
.HF
**END OF


       *******************************************************************
       *********** Output from DALTON general input processing ***********
       *******************************************************************

 --------------------------------------------------------------------------------
   Overall default print level:    0
   Print level for DALTON.STAT:    1

    HERMIT 1- and 2-electron integral sections will be executed
    "Old" integral transformation used (limited to max 255 basis functions)
    Wave function sections will be executed (SIRIUS module)
 --------------------------------------------------------------------------------


   ****************************************************************************
   *************** Output of molecule and basis set information ***************
   ****************************************************************************


    The two title cards from your ".mol" input:
    --------------------------------------------------------------------------------
 1: Phosgene CCl2O using the 6-31G basis
 2: Using automatic symmetry detection
    --------------------------------------------------------------------------------

  Coordinates are entered in Angstrom and converted to atomic units.
          - Conversion factor : 1 bohr = 0.52917721080 A

  Atomic type no.    1
  --------------------
  Nuclear charge:   8.00000
  Number of symmetry independent centers:    1
  Number of basis sets to read;    2
  Basis set file used for this atomic type with Z =   8 :
     "/home/vdwv/DIPLOM_ITMO/CALCULATIONS_AND_SOFTS/softwares/Dalton_Shenanigans/dalton/dalton/build/basis/6-31G"

  Info about the basis set file: your basis has no documentation.
  Basis set: 6-31G                                                                           

  Atomic type no.    2
  --------------------
  Nuclear charge:   6.00000
  Number of symmetry independent centers:    1
  Number of basis sets to read;    2
  Basis set file used for this atomic type with Z =   6 :
     "/home/vdwv/DIPLOM_ITMO/CALCULATIONS_AND_SOFTS/softwares/Dalton_Shenanigans/dalton/dalton/build/basis/6-31G"

  Info about the basis set file: your basis has no documentation.
  Basis set: 6-31G                                                                           

  Atomic type no.    3
  --------------------
  Nuclear charge:  17.00000
  Number of symmetry independent centers:    2
  Number of basis sets to read;    2
  Basis set file used for this atomic type with Z =  17 :
     "/home/vdwv/DIPLOM_ITMO/CALCULATIONS_AND_SOFTS/softwares/Dalton_Shenanigans/dalton/dalton/build/basis/6-31G"

  Info about the basis set file: your basis has no documentation.
  Basis set: 6-31G                                                                           


                      SYMADD: Addition of symmetry requested
                      --------------------------------------

 Symmetry test threshold:  5.00E-06

@  The molecule has been centered at center of mass and rotated
@  so the principal axes of inertia are along coordinate axes.

 Symmetry class found: C(2v)          

 Symmetry Independent Centres             
 ----------------------------
Cl2   17 :      0.00000000     2.82703028     0.89690597  Isotope  1
O      8 :      0.00000000     0.00000000    -3.19246136  Isotope  1
C      6 :      0.00000000     0.00000000    -0.97203317  Isotope  1

 The following symmetry elements were found:   X  Y     


                         SYMGRP: Point group information
                         -------------------------------

@    Full point group is: C(2v)          
@    Represented as:      C2v

@  * The irrep name for each symmetry:    1: A1     2: B1     3: B2     4: A2 

   * The point group was generated by:

      Reflection in the yz-plane
      Reflection in the xz-plane

   * Group multiplication table

        |  E   C2z  Oxz  Oyz
   -----+--------------------
     E  |  E   C2z  Oxz  Oyz
    C2z | C2z   E   Oyz  Oxz
    Oxz | Oxz  Oyz   E   C2z
    Oyz | Oyz  Oxz  C2z   E 

   * Character table

        |  E   C2z  Oxz  Oyz
   -----+--------------------
    A1  |   1    1    1    1
    B1  |   1   -1    1   -1
    B2  |   1   -1   -1    1
    A2  |   1    1   -1   -1

   * Direct product table

        | A1   B1   B2   A2 
   -----+--------------------
    A1  | A1   B1   B2   A2 
    B1  | B1   A1   A2   B2 
    B2  | B2   A2   A1   B1 
    A2  | A2   B2   B1   A1 


                                 Isotopic Masses
                                 ---------------

                           O          15.994915
                           C          12.000000
                           Cl2 _1     34.968853
                           Cl2 _2     34.968853

                       Total mass:    97.932621 amu
                       Natural abundance:  56.643 %

 Center-of-mass coordinates (a.u.):    0.000000    0.000000   -0.000000
 Center-of-mass coordinates (Angs):    0.000000    0.000000   -0.000000


  Atoms and basis sets
  --------------------

  Number of atom types :    3
  Total number of atoms:    4

  Basis set used is "6-31G" from the basis set library.

  label    atoms   charge   prim   cont     basis
  ----------------------------------------------------------------------
  O           1    8.0000    22     9      [10s4p|3s2p]                                       
  C           1    6.0000    22     9      [10s4p|3s2p]                                       
  Cl          2   17.0000    46    13      [16s10p|4s3p]                                      
  ----------------------------------------------------------------------
  total:      4   48.0000   136    44
  ----------------------------------------------------------------------
  Spherical harmonic basis used.

  Threshold for neglecting AO integrals:  1.00D-12


  Cartesian Coordinates (bohr)
  ----------------------------

  Total number of coordinates:   12
  O       :     1  x   0.0000000000    2  y   0.0000000000    3  z  -3.1924613631
  C       :     4  x   0.0000000000    5  y   0.0000000000    6  z  -0.9720331662
  Cl2 / 1 :     7  x   0.0000000000    8  y   2.8270302830    9  z   0.8969059714
  Cl2 / 2 :    10  x   0.0000000000   11  y  -2.8270302830   12  z   0.8969059714


  Cartesian Coordinates (xyz format; angstrom)
  --------------------------------------------

    4

  O        0.0000000000            0.0000000000           -1.6893777997
  C        0.0000000000            0.0000000000           -0.5143777997
 Cl        0.0000000000            1.4960000000            0.4746222003
 Cl        0.0000000000           -1.4960000000            0.4746222003


  Symmetry Coordinates
  --------------------

  Number of coordinates in each symmetry:     4    3    4    1

  Symmetry  A1  ( 1)

    1   O     z    3
    2   C     z    6
    3   Cl2   y    [  8  -   11 ]/2
    4   Cl2   z    [  9  +   12 ]/2

  Symmetry  B1  ( 2)

    5   O     x    1
    6   C     x    4
    7   Cl2   x    [  7  +   10 ]/2

  Symmetry  B2  ( 3)

    8   O     y    2
    9   C     y    5
   10   Cl2   y    [  8  +   11 ]/2
   11   Cl2   z    [  9  -   12 ]/2

  Symmetry  A2  ( 4)

   12   Cl2   x    [  7  -   10 ]/2


   Interatomic separations (in Angstrom):
   --------------------------------------

            O           C           Cl2 _1      Cl2 _2
            ------      ------      ------      ------
 O     :    0.000000
 C     :    1.175000    0.000000
 Cl2 _1:    2.630763    1.793359    0.000000
 Cl2 _2:    2.630763    1.793359    2.992000    0.000000


  Max    interatomic separation is    2.9920 Angstrom (    5.6541 Bohr)
  between atoms    4 and    3, "Cl2 _2" and "Cl2 _1".

  Min YX interatomic separation is    1.1750 Angstrom (    2.2204 Bohr)


  Bond distances (Angstrom):
  --------------------------

                  atom 1     atom 2       distance
                  ------     ------       --------
  bond distance:  C          O            1.175000
  bond distance:  Cl2 _1     C            1.793359
  bond distance:  Cl2 _2     C            1.793359


  Bond angles (degrees):
  ----------------------

                  atom 1     atom 2     atom 3         angle
                  ------     ------     ------         -----
  bond angle:     O          C          Cl2 _1       123.469
  bond angle:     O          C          Cl2 _2       123.469
  bond angle:     Cl2 _1     C          Cl2 _2       113.063




 Principal moments of inertia (u*A**2) and principal axes
 --------------------------------------------------------

   IA      64.579063          0.000000    1.000000    0.000000
   IB     156.521705          0.000000    0.000000    1.000000
   IC     221.100768          1.000000    0.000000    0.000000


 Rotational constants
 --------------------

@    The molecule is planar.

               A                   B                   C

           7825.7408           3228.8110           2285.7406 MHz
            0.261039            0.107702            0.076244 cm-1


@  Nuclear repulsion energy :  187.639388911398 Hartree


  Symmetry Orbitals
  -----------------

  Number of orbitals in each symmetry:          20    7   14    3


  Symmetry  A1 ( 1)

    1     O        1s         1
    2     O        1s         2
    3     O        1s         3
    4     O        2pz        6
    5     O        2pz        9
    6     C        1s        10
    7     C        1s        11
    8     C        1s        12
    9     C        2pz       15
   10     C        2pz       18
   11     Cl2      1s        19 +   20
   12     Cl2      1s        21 +   22
   13     Cl2      1s        23 +   24
   14     Cl2      1s        25 +   26
   15     Cl2      2py       29 -   30
   16     Cl2      2pz       31 +   32
   17     Cl2      2py       35 -   36
   18     Cl2      2pz       37 +   38
   19     Cl2      2py       41 -   42
   20     Cl2      2pz       43 +   44


  Symmetry  B1 ( 2)

   21     O        2px        4
   22     O        2px        7
   23     C        2px       13
   24     C        2px       16
   25     Cl2      2px       27 +   28
   26     Cl2      2px       33 +   34
   27     Cl2      2px       39 +   40


  Symmetry  B2 ( 3)

   28     O        2py        5
   29     O        2py        8
   30     C        2py       14
   31     C        2py       17
   32     Cl2      1s        19 -   20
   33     Cl2      1s        21 -   22
   34     Cl2      1s        23 -   24
   35     Cl2      1s        25 -   26
   36     Cl2      2py       29 +   30
   37     Cl2      2pz       31 -   32
   38     Cl2      2py       35 +   36
   39     Cl2      2pz       37 -   38
   40     Cl2      2py       41 +   42
   41     Cl2      2pz       43 -   44


  Symmetry  A2 ( 4)

   42     Cl2      2px       27 -   28
   43     Cl2      2px       33 -   34
   44     Cl2      2px       39 -   40

  Symmetries of electric field:  B1 (2)  B2 (3)  A1 (1)

  Symmetries of magnetic field:  B2 (3)  B1 (2)  A2 (4)


                     .---------------------------------------.
                     | Starting in Integral Section (HERMIT) |
                     `---------------------------------------'



 ***************************************************************************************
 ****************** Output from **INTEGRALS input processing (HERMIT) ******************
 ***************************************************************************************


 - Using defaults, no **INTEGRALS input found

 Default print level:        1

 Calculation of one- and two-electron Hamiltonian integrals.

 Center of mass  (bohr):      0.000000000000      0.000000000000     -0.000000000000
 Operator center (bohr):      0.000000000000      0.000000000000      0.000000000000
 Gauge origin    (bohr):      0.000000000000      0.000000000000     -0.000000000000
 Dipole origin   (bohr):      0.000000000000      0.000000000000     -0.000000000000

Calculation of 2-electron integrals are postponed until they are needed.


     ************************************************************************
     ************************** Output from HERINT **************************
     ************************************************************************



                      Nuclear contribution to dipole moments
                      --------------------------------------

                 au               Debye          C m (/(10**-30)

      z     -0.87708687        -2.22933232        -7.43625220


  Total CPU  time used in HERMIT:   0.03 seconds
  Total wall time used in HERMIT:   0.03 seconds


                        .----------------------------------.
                        | End of Integral Section (HERMIT) |
                        `----------------------------------'



                   .--------------------------------------------.
                   | Starting in Wave Function Section (SIRIUS) |
                   `--------------------------------------------'


 *** Output from Huckel module :

     Using EWMO model:          F
     Using EHT  model:          T
     Number of Huckel orbitals each symmetry:   16    6   12    4

 Huckel EHT eigenvalues for symmetry :  1
         -104.886401     -20.708357     -11.375825     -10.617813      -8.073722
           -8.072328      -1.511958      -1.214565      -0.761970      -0.595716
           -0.506501      -0.320409      -0.196064      -0.056266      -0.052206
           -0.031344

 Huckel EHT eigenvalues for symmetry :  2
           -8.072437      -0.705307      -0.529760      -0.315961      -0.056208
           -0.049289

 Huckel EHT eigenvalues for symmetry :  3
         -104.887041     -10.618598      -8.073323      -8.072076      -1.139959
           -0.678885      -0.494711      -0.464865      -0.240832      -0.054853
           -0.051498      -0.046049

 Huckel EHT eigenvalues for symmetry :  4
           -8.072194      -0.492259      -0.055278      -0.053832

HUCDRV: reduced number of huckel orbitals in sym 4 from 4 to 3

 **********************************************************************
 *SIRIUS* a direct, restricted step, second order MCSCF program       *
 **********************************************************************

 
     Date and time (Linux)  : Mon May  4 21:45:49 2026
     Host name              : debian                                  

 Title lines from ".mol" input file:
     Phosgene CCl2O using the 6-31G basis
     Using automatic symmetry detection

 Print level on unit LUPRI =   2 is   0
 Print level on unit LUW4  =   2 is   5

@    Restricted, closed shell Hartree-Fock calculation.

 Initial molecular orbitals are obtained according to
 ".MOSTART EHT   " input option

     Wave function specification
     ============================
@    Wave function type        --- HF ---
@    Number of closed shell electrons          48
@    Number of electrons in active shells       0
@    Total charge of the molecule               0

@    Spin multiplicity and 2 M_S                1         0
@    Total number of symmetries                 4 (point group: C2v)
@    Reference state symmetry                   1 (irrep name : A1 )

     Orbital specifications
     ======================
@    Abelian symmetry species          All |    1    2    3    4
@                                          |  A1   B1   B2   A2 
                                       --- |  ---  ---  ---  ---
@    Total number of orbitals           44 |   20    7   14    3
@    Number of basis functions          44 |   20    7   14    3

      ** Automatic occupation of RHF orbitals **

      -- Initial occupation of symmetries is determined from extended Huckel guess.           
      -- Initial occupation of symmetries is :
@    Occupied SCF orbitals              24 |   11    3    8    2

     Maximum number of Fock   iterations      0
     Maximum number of DIIS   iterations     60
     Maximum number of QC-SCF iterations     60
     Threshold for SCF convergence     1.00D-05


 ***********************************************
 ***** DIIS acceleration of SCF iterations *****
 ***********************************************

 C1-DIIS algorithm; max error vectors =    8

 Automatic occupation of symmetries with  48 electrons.

 Iter     Total energy    Error norm  Delta(E)    SCF occupation
 -----------------------------------------------------------------------------

Calculating AOSUPINT

---> (Re)generating AOTWOINT


     ************************************************************************
     ************************** Output from HERINT **************************
     ************************************************************************


***  INFO  GETGAB: GABSO--- not found on AOGABINT. Regenerating.

 Threshold for neglecting two-electron integrals:  1.00D-12
 HERMIT - Number of two-electron integrals written:      122228 ( 24.9% )
 HERMIT - Megabytes written:                              1.511

  Total CPU  time used in TWOINT:   0.16 seconds
  Total wall time used in TWOINT:   0.17 seconds
  Time used in TWOINT     is       0.21 seconds
  CPU  time used in MAKE_AOTWOINT is   0.21 seconds
  WALL time used in MAKE_AOTWOINT is   0.21 seconds
     (Precalculated AO two-electron integrals are transformed to P-supermatrix elements.
      Threshold for discarding integrals :  1.00D-12 )

@  1  -1031.01940017       3.26D+00  -1.03D+03    11   3   8   2
      Virial theorem: -V/T =      1.999776
@    MULPOP   O      -0.69; C       0.73; Cl2 _1 -0.02; Cl2 _2 -0.02; 
   1  Level shift: doubly occupied orbital energies shifted by -2.00D-01
 -----------------------------------------------------------------------------
@  2  -1031.47692886       1.20D+00  -4.58D-01    11   3   8   2
      Virial theorem: -V/T =      2.000239
@    MULPOP   O       0.03; C      -0.47; Cl2 _1  0.22; Cl2 _2  0.22; 
   2  Level shift: doubly occupied orbital energies shifted by -1.00D-01
 -----------------------------------------------------------------------------
@  3  -1031.54865256       4.02D-01  -7.17D-02    11   3   8   2
      Virial theorem: -V/T =      1.999383
@    MULPOP   O      -0.42; C       0.11; Cl2 _1  0.16; Cl2 _2  0.16; 
   3  Level shift: doubly occupied orbital energies shifted by -5.00D-02
 -----------------------------------------------------------------------------
@  4  -1031.55928487       9.44D-02  -1.06D-02    11   3   8   2
      Virial theorem: -V/T =      1.999753
@    MULPOP   O      -0.34; C       0.06; Cl2 _1  0.14; Cl2 _2  0.14; 
   4  Level shift: doubly occupied orbital energies shifted by -1.25D-02
 -----------------------------------------------------------------------------
@  5  -1031.56059828       3.75D-02  -1.31D-03    11   3   8   2
      Virial theorem: -V/T =      1.999721
@    MULPOP   O      -0.35; C       0.04; Cl2 _1  0.15; Cl2 _2  0.15; 
 -----------------------------------------------------------------------------
@  6  -1031.56089093       1.44D-02  -2.93D-04    11   3   8   2
      Virial theorem: -V/T =      1.999693
@    MULPOP   O      -0.35; C       0.05; Cl2 _1  0.15; Cl2 _2  0.15; 
 -----------------------------------------------------------------------------
@  7  -1031.56094643       4.26D-03  -5.55D-05    11   3   8   2
      Virial theorem: -V/T =      1.999700
@    MULPOP   O      -0.35; C       0.05; Cl2 _1  0.15; Cl2 _2  0.15; 
 -----------------------------------------------------------------------------
@  8  -1031.56095074       1.80D-03  -4.31D-06    11   3   8   2
      Virial theorem: -V/T =      1.999695
@    MULPOP   O      -0.35; C       0.04; Cl2 _1  0.15; Cl2 _2  0.15; 
 -----------------------------------------------------------------------------
@  9  -1031.56095145       2.43D-04  -7.10D-07    11   3   8   2
      Virial theorem: -V/T =      1.999695
@    MULPOP   O      -0.35; C       0.04; Cl2 _1  0.15; Cl2 _2  0.15; 
 -----------------------------------------------------------------------------
@ 10  -1031.56095147       4.01D-05  -1.30D-08    11   3   8   2
      Virial theorem: -V/T =      1.999695
@    MULPOP   O      -0.35; C       0.04; Cl2 _1  0.15; Cl2 _2  0.15; 
 -----------------------------------------------------------------------------
@ 11  -1031.56095147       6.15D-06  -2.79D-10    11   3   8   2

@ *** DIIS converged in  11 iterations !
@     Converged SCF energy, gradient:  -1031.560951467781    6.15D-06
    - total time used in SIRFCK :              0.00 seconds


 *** SCF orbital energy analysis ***

 Number of electrons        :   48
 Closed shell orbitals      :   11    3    8    2

 Sym       Hartree-Fock orbital energies

1 A1   -104.87865945   -20.66961170   -11.51045824   -10.62003315    -8.08841010
         -8.08357196    -1.53847657    -1.20693755    -0.81838343    -0.70476675
         -0.53376208     0.07853308     0.35975290     0.50590629     0.59318636
          0.61579080     0.93852936     1.07621754     1.17752977     1.92441740

2 B1     -8.08374893    -0.66453280    -0.50446104     0.08603412     0.57604364
          0.73245721     1.23025900

3 B2   -104.87867568   -10.62006039    -8.08841287    -8.08357775    -1.14934581
         -0.72252322    -0.49123267    -0.48906535     0.22598601     0.56028040
          0.61460489     0.76500305     0.93009234     1.35896960

4 A2     -8.08375478    -0.50797731     0.63540254

    E(LUMO) :     0.07853308 au (symmetry 1)
  - E(HOMO) :    -0.48906535 au (symmetry 3)
  ------------------------------------------
    gap     :     0.56759843 au

 --- Writing SIRIFC interface file

--------------------------------------------------------------------------------


     .--------------------------------------------------.
     | HF-SCF KT IPs [a.u. & eV] from Koopmans' theorem |
     `--------------------------------------------------'


     HF-SCF KT symmetry 1 ( A1 ) in point group C2v -- 11 principal poles with pole strength 1

   ============  ============  ============  ============  ============
     104.878659     20.669612     11.510458     10.620033      8.088410
    2853.893498    562.448745    313.215502    288.985802    220.096835
   ============  ============  ============  ============  ============

   ============  ============  ============  ============  ============
       8.083572      1.538477      1.206938      0.818383      0.704767
     219.965183     41.864077     32.842441     22.269346     19.177679
   ============  ============  ============  ============  ============

   ============
       0.533762
      14.524405
   ============

     HF-SCF KT symmetry 2 ( B1 ) in point group C2v -- 3 principal poles with pole strength 1

   ============  ============  ============
       8.083749      0.664533      0.504461
     219.969998     18.082857     13.727083
   ============  ============  ============

     HF-SCF KT symmetry 3 ( B2 ) in point group C2v -- 8 principal poles with pole strength 1

   ============  ============  ============  ============  ============
     104.878676     10.620060      8.088413      8.083578      1.149346
    2853.893939    288.986544    220.096910    219.965340     31.275291
   ============  ============  ============  ============  ============

   ============  ============  ============
       0.722523      0.491233      0.489065
      19.660857     13.367121     13.308145
   ============  ============  ============

     HF-SCF KT symmetry 4 ( A2 ) in point group C2v -- 2 principal poles with pole strength 1

   ============  ============
       8.083755      0.507977
     219.970157     13.822766
   ============  ============

@ Summary of HF-SCF KT ionization potentials [eV]:

@ Symmetry 1 (A1 ) :  2853.893     562.449     313.216     288.986     220.097
@                      219.965      41.864      32.842      22.269      19.178
@                       14.524

@ Symmetry 2 (B1 ) :   219.970      18.083      13.727

@ Symmetry 3 (B2 ) :  2853.894     288.987     220.097     219.965      31.275
@                       19.661      13.367      13.308

@ Symmetry 4 (A2 ) :   219.970      13.823

  === End of HF-SCF KT output ===
--------------------------------------------------------------------------------


 CPU and wall time for SCF :       0.230       0.231


                       .-----------------------------------.
                       | --- Final results from SIRIUS --- |
                       `-----------------------------------'


@    Spin multiplicity:           1
@    Spatial symmetry:            1 ( irrep  A1  in C2v )
@    Total charge of molecule:    0

@    Final HF energy:           -1031.560951467781                 
@    Nuclear repulsion:           187.639388911398
@    Electronic energy:         -1219.200340379178

@    Final gradient norm:           0.000006146036

 
     Date and time (Linux)  : Mon May  4 21:45:49 2026
     Host name              : debian                                  

File label for MO orbitals:   4May26   FOCKDIIS

 (Only coefficients > 0.0100 are printed.)

 Molecular orbitals for symmetry species 1  (A1 )
 ------------------------------------------------

    Orbital         1        2        3        4        5        6        7
   1 O   :1s     0.0000   0.9959  -0.0005   0.0000   0.0000   0.0000  -0.1923
   2 O   :1s     0.0000   0.0230   0.0003  -0.0001   0.0002   0.0003   0.4264
   3 O   :1s     0.0001  -0.0133  -0.0002  -0.0004   0.0001  -0.0009   0.4055
   4 O   :2pz    0.0000   0.0026   0.0005  -0.0000   0.0000  -0.0000   0.1744
   5 O   :2pz   -0.0000  -0.0044  -0.0010  -0.0001  -0.0002  -0.0003   0.0616
   6 C   :1s    -0.0000   0.0002   0.9963  -0.0002  -0.0000   0.0000  -0.1208
   7 C   :1s     0.0001   0.0002   0.0239  -0.0003   0.0002   0.0004   0.2511
   8 C   :1s    -0.0006   0.0065  -0.0109   0.0020  -0.0013  -0.0005   0.0479
   9 C   :2pz    0.0000   0.0002  -0.0005  -0.0000   0.0002  -0.0001  -0.2020
  10 C   :2pz    0.0001  -0.0052  -0.0023  -0.0004   0.0010  -0.0004   0.0732
  11 Cl2 :1s     0.7047  -0.0000  -0.0000  -0.2028  -0.0022   0.0000   0.0058
  12 Cl2 :1s     0.0089   0.0000   0.0001   0.7291   0.0079  -0.0002  -0.0261
  13 Cl2 :1s    -0.0026  -0.0000  -0.0004   0.0157  -0.0011  -0.0002   0.0509
  15 Cl2 :2py   -0.0000  -0.0000   0.0000  -0.0060   0.5924  -0.3768   0.0084
  16 Cl2 :2pz   -0.0000  -0.0000  -0.0000  -0.0037   0.3765   0.5930   0.0080
  17 Cl2 :2py    0.0000   0.0000  -0.0002  -0.0008   0.0137  -0.0077  -0.0187
  18 Cl2 :2pz    0.0001   0.0002  -0.0000  -0.0006   0.0087   0.0120  -0.0185
  19 Cl2 :2py   -0.0001  -0.0004  -0.0016   0.0005  -0.0031   0.0013   0.0125

    Orbital         8        9       10       11       12       13       14
   1 O   :1s     0.0558   0.0966  -0.0592  -0.0058   0.0158  -0.0930   0.0448
   2 O   :1s    -0.1268  -0.2225   0.1289  -0.0017  -0.0453   0.1101  -0.0620
   3 O   :1s    -0.1346  -0.3462   0.2972   0.1425  -0.0795   2.1437  -0.9726
   4 O   :2pz   -0.0096   0.3045  -0.4052   0.1203  -0.1119   0.1341  -0.0774
   5 O   :2pz   -0.0074   0.1271  -0.1912   0.1115  -0.1360   0.8020  -0.4698
   6 C   :1s    -0.0684  -0.1400  -0.0211   0.0060  -0.1481   0.0184  -0.0448
   7 C   :1s     0.1351   0.3194  -0.0215  -0.0061   0.2179   0.0626   0.0426
   8 C   :1s     0.1714   0.3833   0.2231  -0.1449   1.4921  -1.0447   1.5226
   9 C   :2pz    0.1659  -0.0068   0.3944  -0.0799   0.3026   0.1001  -0.0534
  10 C   :2pz    0.0552   0.0962   0.1522   0.1180   0.4503   2.3716  -0.6323
  11 Cl2 :1s     0.0499  -0.0254  -0.0155   0.0001  -0.0164   0.0198   0.0446
  12 Cl2 :1s    -0.2259   0.1181   0.0721  -0.0021   0.0786  -0.0320  -0.0648
  13 Cl2 :1s     0.4559  -0.2345  -0.1462  -0.0053  -0.1634   0.4177   0.9799
  14 Cl2 :1s     0.1464  -0.2087  -0.1522   0.0047  -0.4228  -0.8581  -1.1618
  15 Cl2 :2py    0.0343   0.0681   0.0985   0.0750  -0.1294   0.0199   0.0465
  16 Cl2 :2pz    0.0157   0.0412   0.0170  -0.1799  -0.0736   0.0287  -0.1004
  17 Cl2 :2py   -0.0812  -0.1672  -0.2458  -0.1934   0.3445  -0.0783  -0.1823
  18 Cl2 :2pz   -0.0368  -0.1018  -0.0394   0.4705   0.1963  -0.0757   0.3561
  19 Cl2 :2py    0.0051  -0.0067  -0.0528  -0.1031   0.5902   0.5905   0.2589
  20 Cl2 :2pz    0.0017  -0.0088   0.0028   0.2261   0.3219  -0.0877  -0.0714

    Orbital        15       16       17       18       19       20
   1 O   :1s    -0.0044  -0.0236  -0.0633   0.0107   0.0283  -0.0342
   2 O   :1s     0.0291  -0.0677   0.2062  -0.0121  -0.2397   1.9460
   3 O   :1s     0.0220   1.0899   0.0483   0.0553  -0.0066  -4.5238
   4 O   :2pz   -0.0121   0.0305   0.2157  -0.1294   0.9882   0.2625
   5 O   :2pz    0.0528   0.5048   0.9199   0.0304  -1.1570  -1.6824
   6 C   :1s    -0.0196   0.0165   0.0349   0.0165   0.0696   0.0460
   7 C   :1s     0.2785   0.0229  -0.5651   2.1263   0.1592   0.2566
   8 C   :1s    -0.8221  -1.9551  -0.4809  -3.8689   0.2699   2.4240
   9 C   :2pz    0.1247   0.1752   1.2188   0.3131   0.2493  -0.2088
  10 C   :2pz   -0.2716   0.6706  -1.1009  -1.3299  -0.2392  -1.9341
  11 Cl2 :1s     0.0180  -0.0173   0.0049  -0.0048  -0.0010  -0.0020
  12 Cl2 :1s    -0.0324   0.0085  -0.0059  -0.0294   0.0013   0.0100
  13 Cl2 :1s     0.3785  -0.4357   0.1178  -0.2107  -0.0241  -0.0235
  14 Cl2 :1s    -0.2269   0.6950   0.1948   1.3489   0.0479   0.0920
  15 Cl2 :2py   -0.2040  -0.0520   0.0184   0.0459  -0.0060  -0.0021
  16 Cl2 :2pz    0.0258  -0.1808   0.0152   0.0029   0.0018  -0.0237
  17 Cl2 :2py    0.7706   0.2062  -0.1014  -0.2274   0.0187   0.0093
  18 Cl2 :2pz   -0.1064   0.7314  -0.0893  -0.0461   0.0021   0.0955
  19 Cl2 :2py   -0.9096  -0.3698  -0.1528  -0.6663  -0.0219  -0.1569
  20 Cl2 :2pz    0.0150  -1.1000   0.1512  -0.3518  -0.0216   0.1095

 Molecular orbitals for symmetry species 2  (B1 )
 ------------------------------------------------

    Orbital         1        2        3        4        5        6        7
   1 O   :2px   -0.0000   0.4072  -0.3115  -0.3948  -0.0220   0.0918   0.9759
   2 O   :2px   -0.0000   0.2513  -0.2536  -0.5394   0.0571   0.1554  -1.2916
   3 C   :2px   -0.0002   0.3682  -0.0998   0.5055  -0.3209   1.0139  -0.1464
   4 C   :2px    0.0008   0.2089  -0.0261   0.7113   0.0083  -1.4798   0.6813
   5 Cl2 :2px    0.7026  -0.0821  -0.1746   0.0629   0.1999   0.0527   0.0046
   6 Cl2 :2px    0.0144   0.2111   0.4558  -0.1734  -0.7799  -0.2274  -0.0108
   7 Cl2 :2px   -0.0033   0.0784   0.2470  -0.1916   0.8256   0.5781  -0.1345

 Molecular orbitals for symmetry species 3  (B2 )
 ------------------------------------------------

    Orbital         1        2        3        4        5        6        7
   1 O   :2py    0.0000  -0.0001   0.0002  -0.0001   0.0475   0.4167   0.3867
   2 O   :2py   -0.0001   0.0003  -0.0012   0.0007  -0.0001   0.2169   0.3138
   3 C   :2py    0.0001  -0.0002   0.0005   0.0000   0.1591   0.3387  -0.0475
   4 C   :2py   -0.0005   0.0012   0.0011  -0.0009   0.0689   0.2555  -0.0827
   5 Cl2 :1s     0.7047  -0.2028  -0.0022  -0.0001   0.0563  -0.0170   0.0015
   6 Cl2 :1s     0.0089   0.7291   0.0079   0.0001  -0.2555   0.0809  -0.0084
   7 Cl2 :1s    -0.0029   0.0164  -0.0016  -0.0004   0.5152  -0.1535   0.0094
   8 Cl2 :1s     0.0020  -0.0059   0.0011   0.0011   0.1967  -0.2035   0.0532
   9 Cl2 :2py   -0.0001  -0.0060   0.5922   0.3773   0.0196   0.0571   0.0235
  10 Cl2 :2pz   -0.0000  -0.0037   0.3769  -0.5927   0.0170   0.0771  -0.1738
  11 Cl2 :2py    0.0001  -0.0011   0.0139   0.0078  -0.0475  -0.1398  -0.0650
  12 Cl2 :2pz    0.0000  -0.0005   0.0088  -0.0122  -0.0412  -0.1924   0.4565
  13 Cl2 :2py   -0.0005   0.0017  -0.0041  -0.0025  -0.0051   0.0040  -0.0532
  14 Cl2 :2pz   -0.0002   0.0007  -0.0020   0.0027   0.0029  -0.0275   0.2090

    Orbital         8        9       10       11       12       13       14
   1 O   :2py    0.2899  -0.2175  -0.0416   0.2087  -0.1005  -0.3685  -0.8712
   2 O   :2py    0.2528  -0.4730   0.1104  -0.1463   0.1676  -0.1991   1.6337
   3 C   :2py   -0.1465   0.6013  -0.2830  -0.2878  -0.0654  -0.9683   0.4610
   4 C   :2py   -0.0986   1.4297  -0.1909   0.9602  -0.6364   2.9232  -2.1469
   5 Cl2 :1s     0.0019  -0.0164  -0.0410   0.0101  -0.0386   0.0115   0.0062
   6 Cl2 :1s    -0.0105   0.0859   0.0609   0.0002   0.0225   0.0138  -0.0216
   7 Cl2 :1s     0.0115  -0.1422  -0.8969   0.2682  -0.9688   0.3455   0.1088
   8 Cl2 :1s     0.0534  -0.7476   1.0664  -0.7709   1.5731  -1.6933   0.7731
   9 Cl2 :2py   -0.1826  -0.0637   0.1431   0.0510  -0.1499  -0.0161   0.0311
  10 Cl2 :2pz    0.0345  -0.0490  -0.0008   0.1996   0.0558  -0.0340   0.0559
  11 Cl2 :2py    0.4766   0.1580  -0.5369  -0.1885   0.6526   0.1166  -0.1738
  12 Cl2 :2pz   -0.0911   0.1142   0.0231  -0.7772  -0.2212   0.1545  -0.2656
  13 Cl2 :2py    0.2303   0.6941   0.4363   0.5036  -1.2949   0.5806  -0.2614
  14 Cl2 :2pz   -0.0857   0.6354  -0.1724   1.1323   0.0357   0.6472  -0.1838

 Molecular orbitals for symmetry species 4  (A2 )
 ------------------------------------------------

    Orbital         1        2        3
   1 Cl2 :2px    0.7025  -0.2025   0.2104
   2 Cl2 :2px    0.0145   0.5280  -0.8333
   3 Cl2 :2px   -0.0034   0.2878   0.9440

  Total CPU  time used in SIRIUS :   0.24 seconds
  Total wall time used in SIRIUS :   0.24 seconds

 
     Date and time (Linux)  : Mon May  4 21:45:49 2026
     Host name              : debian                                  


                     .---------------------------------------.
                     | End of Wave Function Section (SIRIUS) |
                     `---------------------------------------'

  Total CPU  time used in DALTON:   0.29 seconds
  Total wall time used in DALTON:   0.29 seconds

 
     Date and time (Linux)  : Mon May  4 21:45:49 2026
     Host name              : debian                                  
