

     ************************************************************************
     *************** Dalton - An Electronic Structure Program ***************
     ************************************************************************

    This is output from DALTON release Dalton2025.0-dev (2025)
         ( Web site: http://daltonprogram.org )

   ----------------------------------------------------------------------------

    NOTE:
     
    Dalton is an experimental code for the evaluation of molecular
    properties using (MC)SCF, DFT, CI, and CC wave functions.
    The authors accept no responsibility for the performance of
    the code or for the correctness of the results.
     
    The code (in whole or part) is provided under a licence and
    is not to be reproduced for further distribution without
    the written permission of the authors or their representatives.
     
    See the home page "http://daltonprogram.org" for further information.
     
    If results obtained with this code are published,
    the appropriate citations would be both of:
     
       K. Aidas, C. Angeli, K. L. Bak, V. Bakken,
       R. Bast, L. Boman, O. Christiansen, R. Cimiraglia,
       S. Coriani, P. Dahle, E. K. Dalskov, U. Ekstroem,
       T. Enevoldsen, J. J. Eriksen, P. Ettenhuber, B. Fernandez,
       L. Ferrighi, H. Fliegl, L. Frediani, K. Hald, A. Halkier,
       C. Haettig, H. Heiberg, T. Helgaker, A. C. Hennum,
       H. Hettema, E. Hjertenaes, S. Hoest, I.-M. Hoeyvik,
       M. F. Iozzi, B. Jansik, H. J. Aa. Jensen, D. Jonsson,
       P. Joergensen, J. Kauczor, S. Kirpekar,
       T. Kjaergaard, W. Klopper, S. Knecht, R. Kobayashi, H. Koch,
       J. Kongsted, A. Krapp, K. Kristensen, A. Ligabue,
       O. B. Lutnaes, J. I. Melo, K. V. Mikkelsen, R. H. Myhre,
       C. Neiss, C. B. Nielsen, P. Norman, J. Olsen,
       J. M. H. Olsen, A. Osted, M. J. Packer, F. Pawlowski,
       T. B. Pedersen, P. F. Provasi, S. Reine, Z. Rinkevicius,
       T. A. Ruden, K. Ruud, V. Rybkin, P. Salek, C. C. M. Samson,
       A. Sanchez de Meras, T. Saue, S. P. A. Sauer,
       B. Schimmelpfennig, K. Sneskov, A. H. Steindal,
       K. O. Sylvester-Hvid, P. R. Taylor, A. M. Teale,
       E. I. Tellgren, D. P. Tew, A. J. Thorvaldsen, L. Thoegersen,
       O. Vahtras, M. A. Watson, D. J. D. Wilson, M. Ziolkowski
       and H. Agren,
       "The Dalton quantum chemistry program system",
       WIREs Comput. Mol. Sci. 2014, 4:269-284 (doi: 10.1002/wcms.1172)
     
    and
     
       Dalton, a molecular electronic structure program,
       Release Dalton2025.0-dev (2025), see http://daltonprogram.org
   ----------------------------------------------------------------------------

    Authors in alphabetical order (Major contribution(s) in parenthesis):

  Kestutis Aidas,              Vilnius University,        Lithuania   (QM/MM)
  Celestino Angeli,            University of Ferrara,     Italy       (NEVPT2)
  Juan J. Aucar,               Northeast National UniversiArgentina   (LRESC, Relativistic Effects on NMR Shieldings and EFG)
  Keld L. Bak,                 UNI-C,                     Denmark     (AOSOPPA, non-adiabatic coupling, magnetic properties)
  Vebjoern Bakken,             University of Oslo,        Norway      (DALTON; geometry optimizer, symmetry detection)
  Radovan Bast,                UiT The Arctic U. of NorwayNorway      (DALTON installation and execution frameworks)
  Pablo Baudin,                University of Valencia,    Spain       (Cholesky excitation energies)
  Linus Boman,                 NTNU,                      Norway      (Cholesky decomposition and subsystems)
  Bruno N. Cabral Tenorio,     Technical Univ. of Denmark,Denmark     (Lanczos-based CC methods)
  Ove Christiansen,            Aarhus University,         Denmark     (CC module)
  Renzo Cimiraglia,            University of Ferrara,     Italy       (NEVPT2)
  Sonia Coriani,               Technical Univ. of Denmark,Denmark     (CC and RESPONS modules)
  Janusz Cukras,               University of Warsaw,      Poland      (MChD in RESPONS)
  Paal Dahle,                  University of Oslo,        Norway      (Parallelization)
  Erik K. Dalskov,             UNI-C,                     Denmark     (SOPPA)
  Thomas Enevoldsen,           Univ. of Southern Denmark, Denmark     (SOPPA)
  Janus J. Eriksen,            Aarhus University,         Denmark     (Polarizable embedding, TDA)
  Rasmus Faber,                Technical Univ. of Denmark,Denmark     (Vib.avg. NMR w. SOPPA, parallel AO-SOPPA, CVS-CC and EOMCC)
  Tobias Fahleson,             KTH Stockholm,             Sweden      (Damped cubic response)
  Berta Fernandez,             U. of Santiago de CompostelSpain       (Doublet spin, ESR in RESPONS)
  Lara Ferrighi,               Aarhus University,         Denmark     (PCM Cubic response)
  Heike Fliegl,                University of Oslo,        Norway      (CCSD(R12))
  Luca Frediani,               UiT The Arctic U. of NorwayNorway      (PCM)
  Emmanuel Fromager,           Univ. Strasbourg,          France      (MC-srDFT)
  Bin Gao,                     UiT The Arctic U. of NorwayNorway      (Gen1Int library)
  Andre S. P. Gomes,           CNRS/Universite de Lille,  France      (Frozen density embedding)
  Christof Haettig,            Ruhr-University Bochum,    Germany     (CC module)
  Kasper Hald,                 Aarhus University,         Denmark     (CC module)
  Asger Halkier,               Aarhus University,         Denmark     (CC module)
  Frederik Beyer Hansen,       University of Copenhagen,  Denmark     (Parallel AO-SOPPA)
  Erik D. Hedegaard,           Univ. of Southern Denmark, Denmark     (Polarizable embedding, QM/MM, and MC-srDFT)
  Hanne Heiberg,               University of Oslo,        Norway      (Geometry analysis, selected one-electron integrals)
  Trygve Helgaker,             University of Oslo,        Norway      (DALTON; ABACUS, ERI, DFT modules, London, and much more)
  Alf Christian Hennum,        University of Oslo,        Norway      (Parity violation)
  Hinne Hettema,               University of Auckland,    New Zealand (Quadratic response in RESPONS; SIRIUS supersymmetry)
  Andreas E. Hillers-Bendtsen, University of Copenhagen,  Denmark     (MP3)
  Eirik Hjertenaes,            NTNU,                      Norway      (Cholesky decomposition)
  Nicolai Machholdt Hoeyer,    Aarhus University,         Denmark     (MP3)
  Pi A. B. Haase,              University of Copenhagen,  Denmark     (Triplet AO-SOPPA)
  Maria Francesca Iozzi,       University of Oslo,        Norway      (RPA)
  Christoph Jacob,             TU Braunschweig            Germany     (Frozen density embedding)
  Brano Jansik,                Technical Univ. of Ostrava Czech Rep.  (DFT cubic response)
  Hans Joergen Aa. Jensen,     Univ. of Southern Denmark, Denmark     (DALTON; SIRIUS, RESPONS, ABACUS, MC-srDFT, and much more)
  Dan Jonsson,                 UiT The Arctic U. of NorwayNorway      (Cubic response in RESPONS module)
  Poul Joergensen,             Aarhus University,         Denmark     (RESPONS, ABACUS, and CC modules)
  Maciej Kaminski,             University of Warsaw,      Poland      (CPPh in RESPONS)
  Joanna Kauczor,              Linkoeping University,     Sweden      (Complex polarization propagator (CPP) module)
  Sheela Kirpekar,             Univ. of Southern Denmark, Denmark     (Mass-velocity & Darwin integrals)
  Frederik Oersted Kjeldal,    Technical Univ. of Denmark,Denmark     (MP3)
  Erik Kjellgren,              Univ. of Southern Denmark, Denmark     (MC-srDFT)
  Wim Klopper,                 KIT Karlsruhe,             Germany     (R12 code in CC, SIRIUS, and ABACUS modules)
  Stefan Knecht,               ETH Zurich,                Switzerland (Parallel CI and MCSCF, MC-srDFT)
  Rika Kobayashi,              Australian National Univ., Australia   (DIIS in CC, London in MCSCF)
  Henrik Koch,                 NTNU,                      Norway      (CC module, Cholesky decomposition)
  Jacob Kongsted,              Univ. of Southern Denmark, Denmark     (Polarizable embedding, polarizable density embedding, QM/MM)
  Andrea Ligabue,              University of Modena,      Italy       (CTOCD, AOSOPPA)
  Nanna H. List,               Univ. of Southern Denmark, Denmark     (Polarizable embedding)
  Ola B. Lutnaes,              University of Oslo,        Norway      (DFT Hessian)
  Juan I. Melo,                University of Buenos Aires,Argentina   (LRESC, Relativistic Effects on NMR Shieldings)
  Kurt V. Mikkelsen,           University of Copenhagen,  Denmark     (MC-SCRF, QM/MM, and MP3)
  Rolf H. Myhre,               NTNU,                      Norway      (Subsystems and CC3)
  Christian Neiss,             Univ. Erlangen-Nuernberg,  Germany     (CCSD(R12))
  Christian B. Nielsen,        University of Copenhagen,  Denmark     (QM/MM)
  Patrick Norman,              KTH Stockholm,             Sweden      (Cubic response and complex frequency response in RESPONS)
  Jeppe Olsen,                 Aarhus University,         Denmark     (SIRIUS CI/density modules)
  Jogvan Magnus H. Olsen,      Aarhus University,         Denmark     (Polarizable embedding and polarizable density embedding)
  Anders Osted,                Copenhagen University,     Denmark     (QM/MM)
  Martin J. Packer,            University of Sheffield,   UK          (SOPPA)
  Filip Pawlowski,             Kazimierz Wielki UniversityPoland      (CC3)
  Morten N. Pedersen,          Univ. of Southern Denmark, Denmark     (Polarizable embedding)
  Thomas B. Pedersen,          University of Oslo,        Norway      (Cholesky decomposition)
  Patricio F. Provasi,         University of Northeastern,Argentina   (Analysis of coupling constants in localized orbitals)
  Peter Reinholdt,             Univ. of Southern Denmark, Denmark     (Polarizable embedding and polarizable density embedding)
  Zilvinas Rinkevicius,        KTH Stockholm,             Sweden      (open-shell DFT, ESR)
  Elias Rudberg,               KTH Stockholm,             Sweden      (DFT grid and basis info)
  Torgeir A. Ruden,            University of Oslo,        Norway      (Numerical derivatives in ABACUS)
  Kenneth Ruud,                UiT The Arctic U. of NorwayNorway      (DALTON; ABACUS magnetic properties and much more)
  Pawel Salek,                 KTH Stockholm,             Sweden      (DALTON; DFT code)
  Claire C. M. Samson,         University of Karlsruhe    Germany     (Boys localization, r12 integrals in ERI)
  Alfredo Sanchez de Meras,    University of Valencia,    Spain       (CC module, Cholesky decomposition)
  Trond Saue,                  Paul Sabatier University,  France      (direct Fock matrix construction)
  Stephan P. A. Sauer,         University of Copenhagen,  Denmark     (SOPPA(CCSD), SOPPA prop., AOSOPPA, vibrational g-factors)
  Bernd Schimmelpfennig,       Forschungszentrum KarlsruheGermany     (AMFI module)
  Anna K. Schnack-Petersen,    University of Copenhagen,  Denmark     (RPA(D) and HRPA(D) properties in AOSOPPA)
  Kristian Sneskov,            Aarhus University,         Denmark     (Polarizable embedding, QM/MM)
  Arnfinn H. Steindal,         UiT The Arctic U. of NorwayNorway      (parallel QM/MM, polarizable embedding)
  Casper Steinmann,            Aalborg University,        Denmark     (QFIT, polarizable embedding)
  K. O. Sylvester-Hvid,        University of Copenhagen,  Denmark     (MC-SCRF)
  Peter R. Taylor,             VLSCI/Univ. of Melbourne,  Australia   (Symmetry handling ABACUS, integral transformation)
  Andrew M. Teale,             University of Nottingham,  England     (DFT-AC, DFT-D)
  David P. Tew,                University of Bristol,     England     (CCSD(R12))
  Julien Toulouse,             Sorbonne Univ.,            France      (MC-srDFT)
  Olav Vahtras,                KTH Stockholm,             Sweden      (Triplet response, spin-orbit, ESR, TDDFT, open-shell DFT)
  Lucas Visscher,              Vrije Universiteit AmsterdaNetherlands (Frozen density embedding)
  David J. Wilson,             La Trobe University,       Australia   (DFT Hessian and DFT magnetizabilities)
  Luna Zamok,                  University of Copenhagen,  Denmark     (Block Lanczos RPA solver in SOPPA module)
  Hans Agren,                  KTH Stockholm,             Sweden      (SIRIUS module, RESPONS, MC-SCRF solvation)
 --------------------------------------------------------------------------------

     Date and time (Linux)  : Thu May  7 17:31:18 2026
     Host name              : debian                                  

 * Work memory size             :    64000000 =  488.28 megabytes.

 * Directories for basis set searches:
   1) /home/vdwv/DIPLOM_ITMO/CALCULATIONS_AND_SOFTS/softwares/Dalton_Shenanigans/dalton/dalton/build/diplom_files/ch3cooh_acetic_acid/dft/ch3cooh_acetic_acid_dft_b3lyp_3-21g
   2) /home/vdwv/DIPLOM_ITMO/CALCULATIONS_AND_SOFTS/softwares/Dalton_Shenanigans/dalton/dalton/build/basis


Compilation information
-----------------------

 Who compiled             | vdwv
 Host                     | debian
 System                   | Linux-6.12.73+deb13-amd64
 CMake generator          | Unix Makefiles
 Processor                | x86_64
 64-bit integers          | OFF
 MPI                      | OFF
 Fortran compiler         | /usr/bin/gfortran
 Fortran compiler version | GNU Fortran (Debian 14.2.0-19) 14.2.0
 C compiler               | /usr/bin/gcc
 C compiler version       | gcc (Debian 14.2.0-19) 14.2.0
 C++ compiler             | /usr/bin/g++
 C++ compiler version     | g++ (Debian 14.2.0-19) 14.2.0
 BLAS                     | /opt/intel/oneapi/mkl/2025.3/lib/intel64/libmkl_gf
                          | _lp64.so;/opt/intel/oneapi/mkl/2025.3/lib/intel64/
                          | libmkl_sequential.so;/opt/intel/oneapi/mkl/2025.3/
                          | lib/intel64/libmkl_core.so;/usr/lib/x86_64-linux-g
                          | nu/libpthread.a;/usr/lib/x86_64-linux-gnu/libm.so
 LAPACK                   | /opt/intel/oneapi/mkl/2025.3/lib/intel64/libmkl_la
                          | pack95_lp64.a;/opt/intel/oneapi/mkl/2025.3/lib/int
                          | el64/libmkl_gf_lp64.so
 Static linking           | OFF
 Last Git revision        | 1892235f9264b9be21ec2fefe6e0081d659ab244
 Git branch               | master
 Configuration time       | 2026-05-04 17:50:26.788788

 * Sequential calculation.


   Content of the .dal input file
 ----------------------------------

BASIS
3-21G
Acetic acid CH3COOH using the 3-21G basis
Using automatic symmetry detection
AtomTypes=3 Angstrom
Charge=6.0 Atoms=2
C1    1.144     -0.816      0.000
C2    0.000      0.168      0.000
Charge=8.0 Atoms=2
O3    0.057      1.390      0.000
O7   -1.202     -0.522      0.000
Charge=1.0 Atoms=4
H4    2.090     -0.276      0.000
H5    1.074     -1.459      0.883
H6    1.074     -1.459     -0.883
H8   -1.942      0.147      0.000

**DALTON INPUT
.RUN WAVE FUN
**WAVE FUN
.DFT
 B3LYP
**END OF



       *******************************************************************
       *********** Output from DALTON general input processing ***********
       *******************************************************************

 --------------------------------------------------------------------------------
   Overall default print level:    0
   Print level for DALTON.STAT:    1

    HERMIT 1- and 2-electron integral sections will be executed
    "Old" integral transformation used (limited to max 255 basis functions)
    Wave function sections will be executed (SIRIUS module)
 --------------------------------------------------------------------------------


   ****************************************************************************
   *************** Output of molecule and basis set information ***************
   ****************************************************************************


    The two title cards from your ".mol" input:
    --------------------------------------------------------------------------------
 1: Acetic acid CH3COOH using the 3-21G basis
 2: Using automatic symmetry detection
    --------------------------------------------------------------------------------

  Coordinates are entered in Angstrom and converted to atomic units.
          - Conversion factor : 1 bohr = 0.52917721080 A

  Atomic type no.    1
  --------------------
  Nuclear charge:   6.00000
  Number of symmetry independent centers:    2
  Number of basis sets to read;    2
  Basis set file used for this atomic type with Z =   6 :
     "/home/vdwv/DIPLOM_ITMO/CALCULATIONS_AND_SOFTS/softwares/Dalton_Shenanigans/dalton/dalton/build/basis/3-21G"

  Info about the basis set file: your basis has no documentation.
  Basis set: 3-21G                                                                           

  Atomic type no.    2
  --------------------
  Nuclear charge:   8.00000
  Number of symmetry independent centers:    2
  Number of basis sets to read;    2
  Basis set file used for this atomic type with Z =   8 :
     "/home/vdwv/DIPLOM_ITMO/CALCULATIONS_AND_SOFTS/softwares/Dalton_Shenanigans/dalton/dalton/build/basis/3-21G"

  Info about the basis set file: your basis has no documentation.
  Basis set: 3-21G                                                                           

  Atomic type no.    3
  --------------------
  Nuclear charge:   1.00000
  Number of symmetry independent centers:    4
  Number of basis sets to read;    2
  Basis set file used for this atomic type with Z =   1 :
     "/home/vdwv/DIPLOM_ITMO/CALCULATIONS_AND_SOFTS/softwares/Dalton_Shenanigans/dalton/dalton/build/basis/3-21G"

  Info about the basis set file: your basis has no documentation.
  Basis set: 3-21G                                                                           


                      SYMADD: Addition of symmetry requested
                      --------------------------------------

 Symmetry test threshold:  5.00E-06

@  The molecule has been centered at center of mass and rotated
@  so the principal axes of inertia are along coordinate axes.

 Symmetry class found: C(s)           

 Symmetry Independent Centres             
 ----------------------------
O7     8 :     -1.00924696    -2.23424655     0.00000000  Isotope  1
O3     8 :     -1.47166026     2.06709043     0.00000000  Isotope  1
C2     6 :     -0.08592087     0.21670054     0.00000000  Isotope  1
C1     6 :      2.76499439     0.15696600     0.00000000  Isotope  1
H8     1 :     -2.89243155    -2.14822186     0.00000000  Isotope  1
H5     1 :      3.43581459    -0.86477353     1.66862817  Isotope  1
H4     1 :      3.49533202     2.08147438     0.00000000  Isotope  1

 The following symmetry element was found:   Z        


                         SYMGRP: Point group information
                         -------------------------------

@    Full point group is: C(s)           
@    Represented as:      Cs 

@  * The irrep name for each symmetry:    1: A'     2: A" 

   * The point group was generated by:

      Reflection in the xy-plane

   * Group multiplication table

        |  E   Oxy
   -----+----------
     E  |  E   Oxy
    Oxy | Oxy   E 

   * Character table

        |  E   Oxy
   -----+----------
    A'  |   1    1
    A"  |   1   -1

   * Direct product table

        | A'   A" 
   -----+----------
    A'  | A'   A" 
    A"  | A"   A' 


                                 Isotopic Masses
                                 ---------------

                           C1         12.000000
                           C2         12.000000
                           O3         15.994915
                           O7         15.994915
                           H4          1.007825
                           H5  _1      1.007825
                           H5  _2      1.007825
                           H8          1.007825

                       Total mass:    60.021130 amu
                       Natural abundance:  97.285 %

 Center-of-mass coordinates (a.u.):    0.000000   -0.000000    0.000000
 Center-of-mass coordinates (Angs):    0.000000   -0.000000    0.000000


  Atoms and basis sets
  --------------------

  Number of atom types :    3
  Total number of atoms:    8

  Basis set used is "3-21G" from the basis set library.

  label    atoms   charge   prim   cont     basis
  ----------------------------------------------------------------------
  C2          2    6.0000    15     9      [6s3p|3s2p]                                        
  O7          2    8.0000    15     9      [6s3p|3s2p]                                        
  H8          4    1.0000     3     2      [3s|2s]                                            
  ----------------------------------------------------------------------
  total:      8   32.0000    72    44
  ----------------------------------------------------------------------

  Threshold for neglecting AO integrals:  1.00D-12


  Cartesian Coordinates (bohr)
  ----------------------------

  Total number of coordinates:   24
  C1      :     1  x   2.7649943891    2  y   0.1569659979    3  z   0.0000000000
  C2      :     4  x  -0.0859208722    5  y   0.2167005445    6  z   0.0000000000
  O3      :     7  x  -1.4716602582    8  y   2.0670904260    9  z   0.0000000000
  O7      :    10  x  -1.0092469581   11  y  -2.2342465480   12  z   0.0000000000
  H4      :    13  x   3.4953320175   14  y   2.0814743776   15  z   0.0000000000
  H5  / 1 :    16  x   3.4358145908   17  y  -0.8647735269   18  z   1.6686281684
  H5  / 2 :    19  x   3.4358145908   20  y  -0.8647735269   21  z  -1.6686281684
  H8      :    22  x  -2.8924315478   23  y  -2.1482218643   24  z   0.0000000000


  Cartesian Coordinates (xyz format; angstrom)
  --------------------------------------------

    8

  C        1.4631720187            0.0830628290            0.0000000000
  C       -0.0454673675            0.1146729897            0.0000000000
  O       -0.7787690707            1.0938571461            0.0000000000
  O       -0.5340704903           -1.1823123565            0.0000000000
  H        1.8496500478            1.1014688055            0.0000000000
  H        1.8181547820           -0.4576184429            0.8830000000
  H        1.8181547820           -0.4576184429           -0.8830000000
  H       -1.5306088589           -1.1367900543            0.0000000000


  Symmetry Coordinates
  --------------------

  Number of coordinates in each symmetry:    15    9

  Symmetry  A'  ( 1)

    1   C1    x    1
    2   C1    y    2
    3   C2    x    4
    4   C2    y    5
    5   O3    x    7
    6   O3    y    8
    7   O7    x   10
    8   O7    y   11
    9   H4    x   13
   10   H4    y   14
   11   H5    x    [ 16  +   19 ]/2
   12   H5    y    [ 17  +   20 ]/2
   13   H5    z    [ 18  -   21 ]/2
   14   H8    x   22
   15   H8    y   23

  Symmetry  A"  ( 2)

   16   C1    z    3
   17   C2    z    6
   18   O3    z    9
   19   O7    z   12
   20   H4    z   15
   21   H5    x    [ 16  -   19 ]/2
   22   H5    y    [ 17  -   20 ]/2
   23   H5    z    [ 18  +   21 ]/2
   24   H8    z   24


   Interatomic separations (in Angstrom):
   --------------------------------------

            C1          C2          O3          O7          H4          H5  _1
            ------      ------      ------      ------      ------      ------
 C1    :    0.000000
 C2    :    1.508971    0.000000
 O3    :    2.459269    1.223329    0.000000
 O7    :    2.364350    1.385967    2.289285    0.000000
 H4    :    1.089273    2.136641    2.628430    3.301179    0.000000
 H5  _1:    1.094549    2.140162    3.151314    2.614925    1.792047    0.000000
 H5  _2:    1.094549    2.140162    3.151314    2.614925    1.792047    1.766000
 H8    :    3.232764    1.942114    2.353943    0.997578    4.054128    3.529190

            H5  _2      H8    
            ------      ------
 H5  _2:    0.000000
 H8    :    3.529190    0.000000


  Max    interatomic separation is    4.0541 Angstrom (    7.6612 Bohr)
  between atoms    8 and    5, "H8    " and "H4    ".

  Min HX interatomic separation is    0.9976 Angstrom (    1.8851 Bohr)

  Min YX interatomic separation is    1.2233 Angstrom (    2.3118 Bohr)


  Bond distances (Angstrom):
  --------------------------

                  atom 1     atom 2       distance
                  ------     ------       --------
  bond distance:  C2         C1           1.508971
  bond distance:  O3         C2           1.223329
  bond distance:  O7         C2           1.385967
  bond distance:  H4         C1           1.089273
  bond distance:  H5  _1     C1           1.094549
  bond distance:  H5  _2     C1           1.094549
  bond distance:  H8         O7           0.997578


  Bond angles (degrees):
  ----------------------

                  atom 1     atom 2     atom 3         angle
                  ------     ------     ------         -----
  bond angle:     C2         C1         H4           109.581
  bond angle:     C2         C1         H5  _1       109.548
  bond angle:     C2         C1         H5  _2       109.548
  bond angle:     H4         C1         H5  _1       110.290
  bond angle:     H4         C1         H5  _2       110.290
  bond angle:     H5  _1     C1         H5  _2       107.554
  bond angle:     C1         C2         O3           128.030
  bond angle:     C1         C2         O7           109.442
  bond angle:     O3         C2         O7           122.528
  bond angle:     C2         O7         H8           108.027




 Principal moments of inertia (u*A**2) and principal axes
 --------------------------------------------------------

   IA      46.256393          1.000000    0.000000    0.000000
   IB      54.021902          0.000000    1.000000    0.000000
   IC      97.135134          0.000000    0.000000    1.000000


 Rotational constants
 --------------------

               A                   B                   C

          10925.6035           9355.0762           5202.8446 MHz
            0.364439            0.312052            0.173548 cm-1


@  Nuclear repulsion energy :  119.547584589021 Hartree


  Symmetry Orbitals
  -----------------

  Number of orbitals in each symmetry:          34   10


  Symmetry  A' ( 1)

    1     C1       1s         1
    2     C1       1s         2
    3     C1       1s         3
    4     C1       2px        4
    5     C1       2py        5
    6     C1       2px        7
    7     C1       2py        8
    8     C2       1s        10
    9     C2       1s        11
   10     C2       1s        12
   11     C2       2px       13
   12     C2       2py       14
   13     C2       2px       16
   14     C2       2py       17
   15     O3       1s        19
   16     O3       1s        20
   17     O3       1s        21
   18     O3       2px       22
   19     O3       2py       23
   20     O3       2px       25
   21     O3       2py       26
   22     O7       1s        28
   23     O7       1s        29
   24     O7       1s        30
   25     O7       2px       31
   26     O7       2py       32
   27     O7       2px       34
   28     O7       2py       35
   29     H4       1s        37
   30     H4       1s        38
   31     H5       1s        39 +   40
   32     H5       1s        41 +   42
   33     H8       1s        43
   34     H8       1s        44


  Symmetry  A" ( 2)

   35     C1       2pz        6
   36     C1       2pz        9
   37     C2       2pz       15
   38     C2       2pz       18
   39     O3       2pz       24
   40     O3       2pz       27
   41     O7       2pz       33
   42     O7       2pz       36
   43     H5       1s        39 -   40
   44     H5       1s        41 -   42

  Symmetries of electric field:  A' (1)  A' (1)  A" (2)

  Symmetries of magnetic field:  A" (2)  A" (2)  A' (1)


                     .---------------------------------------.
                     | Starting in Integral Section (HERMIT) |
                     `---------------------------------------'



 ***************************************************************************************
 ****************** Output from **INTEGRALS input processing (HERMIT) ******************
 ***************************************************************************************


 - Using defaults, no **INTEGRALS input found

 Default print level:        1

 Calculation of one- and two-electron Hamiltonian integrals.

 Center of mass  (bohr):      0.000000000000     -0.000000000000      0.000000000000
 Operator center (bohr):      0.000000000000      0.000000000000      0.000000000000
 Gauge origin    (bohr):      0.000000000000     -0.000000000000      0.000000000000
 Dipole origin   (bohr):      0.000000000000     -0.000000000000      0.000000000000

Calculation of 2-electron integrals are postponed until they are needed.


     ************************************************************************
     ************************** Output from HERINT **************************
     ************************************************************************



                      Nuclear contribution to dipole moments
                      --------------------------------------

                 au               Debye          C m (/(10**-30)

      x      3.70171302         9.40881541        31.38442998
      y     -0.89154426        -2.26607934        -7.55882704


  Total CPU  time used in HERMIT:   0.03 seconds
  Total wall time used in HERMIT:   0.03 seconds


                        .----------------------------------.
                        | End of Integral Section (HERMIT) |
                        `----------------------------------'



                   .--------------------------------------------.
                   | Starting in Wave Function Section (SIRIUS) |
                   `--------------------------------------------'


 *** Output from Huckel module :

     Using EWMO model:          F
     Using EHT  model:          T
     Number of Huckel orbitals each symmetry:   19    5

 Huckel EHT eigenvalues for symmetry :  1
          -20.706253     -20.703207     -11.387703     -11.372139      -1.643947
           -1.401343      -1.232978      -0.785785      -0.724544      -0.691554
           -0.574853      -0.563146      -0.490872      -0.291530      -0.268382
           -0.223006      -0.212630      -0.194818      -0.182334

 Huckel EHT eigenvalues for symmetry :  2
           -0.757446      -0.599076      -0.580167      -0.314168      -0.200321

 **********************************************************************
 *SIRIUS* a direct, restricted step, second order MCSCF program       *
 **********************************************************************

 
     Date and time (Linux)  : Thu May  7 17:31:18 2026
     Host name              : debian                                  

 Title lines from ".mol" input file:
     Acetic acid CH3COOH using the 3-21G basis
     Using automatic symmetry detection

 Print level on unit LUPRI =   2 is   0
 Print level on unit LUW4  =   2 is   5

@    Restricted, closed shell Kohn-Sham DFT calculation.

 Initial molecular orbitals are obtained according to
 ".MOSTART EHT   " input option

     Wave function specification
     ============================
@    Wave function type        --- KS-DFT ---
@    Number of closed shell electrons          32
@    Number of electrons in active shells       0
@    Total charge of the molecule               0

@    Spin multiplicity and 2 M_S                1         0
@    Total number of symmetries                 2 (point group: Cs )
@    Reference state symmetry                   1 (irrep name : A' )
 
     This is a DFT calculation of type: B3LYP
 Weighted mixed functional:
               HF exchange:    0.20000
                       VWN:    0.19000
                       LYP:    0.81000
                     Becke:    0.72000
                    Slater:    0.80000

     Orbital specifications
     ======================
@    Abelian symmetry species          All |    1    2
@                                          |  A'   A" 
                                       --- |  ---  ---
@    Total number of orbitals           44 |   34   10
@    Number of basis functions          44 |   34   10

      ** Automatic occupation of RKS orbitals **

      -- Initial occupation of symmetries is determined from extended Huckel guess.           
      -- Initial occupation of symmetries is :
@    Occupied SCF orbitals              16 |   13    3

     Maximum number of Fock   iterations      0
     Maximum number of DIIS   iterations     60
     Maximum number of QC-SCF iterations     60
     Threshold for SCF convergence     1.00D-05
 
     This is a DFT calculation of type: B3LYP
 Weighted mixed functional:
               HF exchange:    0.20000
                       VWN:    0.19000
                       LYP:    0.81000
                     Becke:    0.72000
                    Slater:    0.80000


 ***********************************************
 ***** DIIS acceleration of SCF iterations *****
 ***********************************************

 C1-DIIS algorithm; max error vectors =    8

 Automatic occupation of symmetries with  32 electrons.

 Iter     Total energy    Error norm  Delta(E)    SCF occupation
 -----------------------------------------------------------------------------

---> (Re)generating AOTWOINT


     ************************************************************************
     ************************** Output from HERINT **************************
     ************************************************************************


***  INFO  GETGAB: GABSO--- not found on AOGABINT. Regenerating.

 Threshold for neglecting two-electron integrals:  1.00D-12
 HERMIT - Number of two-electron integrals written:      252840 ( 51.5% )
 HERMIT - Megabytes written:                              3.021

      K-S energy, electrons, error :    -23.553900264526  31.9999935722   -6.43D-06
@  1  -226.836052546       4.38D+00  -2.27D+02    13   3
      Virial theorem: -V/T =      2.001094
@    MULPOP   C1      0.36; C2      0.97; O3     -0.82; O7     -0.40; H4     -0.11; H5  _1 -0.08; H5  _2 -0.08; H8      0.16; 
   1  Level shift: doubly occupied orbital energies shifted by -2.00D-01
 -----------------------------------------------------------------------------
      K-S energy, electrons, error :    -23.596009879669  31.9999957495   -4.25D-06
@  2  -226.890333948       4.12D+00  -5.43D-02    13   3
      Virial theorem: -V/T =      2.007089
@    MULPOP   C1     -1.11; C2     -0.80; O3      0.90; O7     -0.43; H4      0.38; H5  _1  0.36; H5  _2  0.36; H8      0.35; 
   2  Level shift: doubly occupied orbital energies shifted by -2.00D-01
 -----------------------------------------------------------------------------
      K-S energy, electrons, error :    -23.758965196581  31.9999957409   -4.26D-06
@  3  -227.650753181       1.05D+00  -7.60D-01    13   3
      Virial theorem: -V/T =      2.003864
@    MULPOP   C1     -0.76; C2      0.69; O3     -0.66; O7     -0.39; H4      0.25; H5  _1  0.27; H5  _2  0.27; H8      0.33; 
   3  Level shift: doubly occupied orbital energies shifted by -1.00D-01
 -----------------------------------------------------------------------------
      K-S energy, electrons, error :    -23.675298988415  31.9999961778   -3.82D-06
@  4  -227.678958948       5.53D-01  -2.82D-02    13   3
      Virial theorem: -V/T =      2.007518
@    MULPOP   C1     -0.50; C2      0.70; O3     -0.48; O7     -0.67; H4      0.19; H5  _1  0.19; H5  _2  0.19; H8      0.38; 
   4  Level shift: doubly occupied orbital energies shifted by -1.00D-01
 -----------------------------------------------------------------------------
      K-S energy, electrons, error :    -23.656760749622  31.9999959805   -4.02D-06
@  5  -227.692671085       1.18D-01  -1.37D-02    13   3
      Virial theorem: -V/T =      2.008376
@    MULPOP   C1     -0.60; C2      0.61; O3     -0.50; O7     -0.53; H4      0.21; H5  _1  0.23; H5  _2  0.23; H8      0.35; 
   5  Level shift: doubly occupied orbital energies shifted by -2.50D-02
 -----------------------------------------------------------------------------
      K-S energy, electrons, error :    -23.680408219610  31.9999960195   -3.98D-06
@  6  -227.693275172       3.24D-02  -6.04D-04    13   3
      Virial theorem: -V/T =      2.007380
@    MULPOP   C1     -0.64; C2      0.60; O3     -0.48; O7     -0.55; H4      0.23; H5  _1  0.24; H5  _2  0.24; H8      0.36; 
   6  Level shift: doubly occupied orbital energies shifted by -1.25D-02
 -----------------------------------------------------------------------------
      K-S energy, electrons, error :    -23.673629392069  31.9999960236   -3.98D-06
@  7  -227.693329300       9.19D-03  -5.41D-05    13   3
      Virial theorem: -V/T =      2.007631
@    MULPOP   C1     -0.62; C2      0.59; O3     -0.47; O7     -0.55; H4      0.23; H5  _1  0.23; H5  _2  0.23; H8      0.36; 
 -----------------------------------------------------------------------------
      K-S energy, electrons, error :    -23.674006675795  31.9999960224   -3.98D-06
@  8  -227.693333724       2.25D-03  -4.42D-06    13   3
      Virial theorem: -V/T =      2.007625
@    MULPOP   C1     -0.63; C2      0.60; O3     -0.47; O7     -0.55; H4      0.23; H5  _1  0.23; H5  _2  0.23; H8      0.36; 
 -----------------------------------------------------------------------------
      K-S energy, electrons, error :    -23.674221011543  31.9999960223   -3.98D-06
@  9  -227.693334014       3.27D-04  -2.91D-07    13   3
      Virial theorem: -V/T =      2.007616
@    MULPOP   C1     -0.63; C2      0.60; O3     -0.47; O7     -0.55; H4      0.23; H5  _1  0.23; H5  _2  0.23; H8      0.36; 
 -----------------------------------------------------------------------------
      K-S energy, electrons, error :    -23.674228549560  31.9999960225   -3.98D-06
@ 10  -227.693334020       3.29D-05  -5.69D-09    13   3
      Virial theorem: -V/T =      2.007615
@    MULPOP   C1     -0.63; C2      0.60; O3     -0.47; O7     -0.55; H4      0.23; H5  _1  0.23; H5  _2  0.23; H8      0.36; 
 -----------------------------------------------------------------------------
      K-S energy, electrons, error :    -23.674226923545  31.9999960224   -3.98D-06
@ 11  -227.693334020       3.48D-06  -6.64D-11    13   3

@ *** DIIS converged in  11 iterations !
@     Converged SCF energy, gradient:   -227.693334020104    3.48D-06
    - total time used in SIRFCK :              0.11 seconds


 *** SCF orbital energy analysis ***

 Only the 20 lowest virtual orbital energies printed in each symmetry.

 Number of electrons        :   32
 Closed shell orbitals      :   13    3

 Sym       Kohn-Sham orbital energies

1 A'    -19.07195689   -19.02623293   -10.25679259   -10.13119931    -1.09569384
         -1.01194289    -0.75649714    -0.59561672    -0.48063296    -0.45077291
         -0.40598145    -0.36849673    -0.26211171     0.09309062     0.14380252
          0.17777187     0.22741666     0.31244550     0.39101586     0.71942767
          0.74319109     0.81677827     0.84150855     0.96938043     0.98754857
          1.06476037     1.33369832     1.56281950     1.61345744     1.64828821
          1.77891144     1.97170565     3.02417755

2 A"     -0.46105522    -0.38045763    -0.29737914     0.01529361     0.19116448
          0.68672374     0.81104708     1.02783789     1.43445580     1.59038345

    E(LUMO) :     0.01529361 au (symmetry 2)
  - E(HOMO) :    -0.26211171 au (symmetry 1)
  ------------------------------------------
    gap     :     0.27740532 au

 --- Writing SIRIFC interface file

--------------------------------------------------------------------------------


     .-----------------------------------------------.
     | DFT KT IPs [a.u. & eV] from Koopmans' theorem |
     `-----------------------------------------------'


     DFT KT symmetry 1 ( A' ) in point group Cs  -- 13 principal poles with pole strength 1

   ============  ============  ============  ============  ============
      19.071957     19.026233     10.256793     10.131199      1.095694
     518.974347    517.730134    279.101524    275.683957     29.815346
   ============  ============  ============  ============  ============

   ============  ============  ============  ============  ============
       1.011943      0.756497      0.595617      0.480633      0.450773
      27.536367     20.585334     16.207555     13.078688     12.266155
   ============  ============  ============  ============  ============

   ============  ============  ============
       0.405981      0.368497      0.262112
      11.047317     10.027306      7.132422
   ============  ============  ============

     DFT KT symmetry 2 ( A" ) in point group Cs  -- 3 principal poles with pole strength 1

   ============  ============  ============
       0.461055      0.380458      0.297379
      12.545951     10.352779      8.092098
   ============  ============  ============

@ Summary of DFT KT ionization potentials [eV]:

@ Symmetry 1 (A' ) :   518.974     517.730     279.102     275.684      29.815
@                       27.536      20.585      16.208      13.079      12.266
@                       11.047      10.027       7.132

@ Symmetry 2 (A" ) :    12.546      10.353       8.092

  === End of DFT KT output ===
--------------------------------------------------------------------------------


 CPU and wall time for SCF :       5.765       5.765


                       .-----------------------------------.
                       | --- Final results from SIRIUS --- |
                       `-----------------------------------'


@    Spin multiplicity:           1
@    Spatial symmetry:            1 ( irrep  A'  in Cs  )
@    Total charge of molecule:    0

@    Final DFT energy:           -227.693334020104                 
@    Nuclear repulsion:           119.547584589021
@    Electronic energy:          -347.240918609125

@    Final gradient norm:           0.000003480698

 
     Date and time (Linux)  : Thu May  7 17:31:24 2026
     Host name              : debian                                  

File label for MO orbitals:   7May26   FOCKDIIS

 (Only coefficients > 0.0100 are printed.)

 Molecular orbitals for symmetry species 1  (A' )
 ------------------------------------------------

    Orbital         1        2        3        4        5        6        7
   1 C1  :1s    -0.0000  -0.0000  -0.0040   0.9863  -0.0183  -0.0013  -0.1907
   2 C1  :1s    -0.0005  -0.0002  -0.0035   0.1126   0.0176   0.0019   0.1868
   3 C1  :1s     0.0008   0.0071   0.0251  -0.0945   0.0069  -0.0161   0.5292
   4 C1  :2px    0.0006  -0.0002   0.0010  -0.0002  -0.0217  -0.0016  -0.0520
   6 C1  :2px   -0.0008  -0.0034  -0.0175   0.0074   0.0136   0.0132  -0.0122
   7 C1  :2py    0.0041  -0.0086  -0.0011  -0.0002   0.0029   0.0399  -0.0028
   8 C2  :1s    -0.0005   0.0002   0.9853   0.0035  -0.1284  -0.0417  -0.0780
   9 C2  :1s    -0.0010   0.0017   0.1044  -0.0024   0.1447   0.0438   0.0935
  10 C2  :1s     0.0149   0.0185  -0.0533   0.0245   0.1352   0.0474   0.1529
  11 C2  :2px   -0.0010  -0.0010  -0.0002  -0.0007  -0.0899  -0.0549   0.1683
  12 C2  :2py   -0.0014   0.0016   0.0005   0.0002   0.0149   0.1907  -0.0433
  13 C2  :2px   -0.0071  -0.0196  -0.0239   0.0162   0.0539   0.0264   0.0593
  14 C2  :2py   -0.0161   0.0219   0.0062   0.0019  -0.0179  -0.0400  -0.0227
  15 O3  :1s    -0.0002   0.9828   0.0004   0.0000  -0.1331  -0.1647   0.0417
  16 O3  :1s     0.0001   0.1074   0.0019   0.0001   0.1237   0.1569  -0.0429
  17 O3  :1s     0.0004  -0.0630  -0.0069  -0.0010   0.4081   0.5205  -0.1351
  18 O3  :2px   -0.0007   0.0027  -0.0011   0.0001   0.0570   0.0732   0.0197
  19 O3  :2py   -0.0005  -0.0039   0.0003   0.0003  -0.0884  -0.0855   0.0193
  20 O3  :2px    0.0034  -0.0098  -0.0009  -0.0024   0.0465   0.0710   0.0153
  21 O3  :2py    0.0034   0.0143   0.0076  -0.0007  -0.0943  -0.0797   0.0134
  22 O7  :1s     0.9825   0.0003   0.0002  -0.0000  -0.1556   0.1614   0.0313
  23 O7  :1s     0.1057   0.0000   0.0012  -0.0005   0.1440  -0.1523  -0.0294
  24 O7  :1s    -0.0530   0.0018   0.0024   0.0001   0.4703  -0.5226  -0.1183
  25 O7  :2px   -0.0013  -0.0009  -0.0007  -0.0007  -0.0274   0.0357   0.0956
  26 O7  :2py    0.0037   0.0003   0.0008  -0.0004   0.0795  -0.0542   0.0277
  27 O7  :2px    0.0009   0.0054   0.0043   0.0014  -0.0374   0.0206   0.0697
  28 O7  :2py   -0.0120  -0.0020  -0.0034   0.0009   0.0966  -0.0653   0.0146
  29 H4  :1s    -0.0009   0.0010  -0.0013  -0.0001   0.0054  -0.0007   0.0945
  30 H4  :1s     0.0001   0.0028   0.0025   0.0162  -0.0060  -0.0104  -0.0029
  31 H5  :1s     0.0003  -0.0007  -0.0018  -0.0000   0.0059   0.0022   0.0995
  32 H5  :1s     0.0003  -0.0014   0.0025   0.0161  -0.0041   0.0015   0.0014
  33 H8  :1s     0.0034   0.0016   0.0012   0.0004   0.0647  -0.0799  -0.0636
  34 H8  :1s     0.0044  -0.0009   0.0013   0.0020   0.0159  -0.0150  -0.0371

    Orbital         8        9       10       11       12       13       14
   1 C1  :1s    -0.0833   0.0288   0.0132  -0.0009   0.0164  -0.0272  -0.0591
   2 C1  :1s     0.0747  -0.0183  -0.0079  -0.0014  -0.0123   0.0169   0.0346
   3 C1  :1s     0.3132  -0.1807  -0.1050   0.0174  -0.1618   0.2313   0.6981
   4 C1  :2px    0.1194  -0.2346  -0.1167   0.0832   0.1735  -0.1520  -0.0519
   5 C1  :2py    0.0431   0.1488  -0.0665   0.3554  -0.0007   0.0512   0.0250
   6 C1  :2px    0.0332  -0.1030  -0.0821   0.0418   0.1607  -0.1780  -0.0798
   7 C1  :2py    0.0262   0.1236  -0.0951   0.2533  -0.0019   0.0617   0.2286
   8 C2  :1s     0.1022  -0.0783   0.0533   0.0314   0.0127  -0.0118   0.0277
   9 C2  :1s    -0.1202   0.0964  -0.0821  -0.0413  -0.0101   0.0150  -0.0085
  10 C2  :1s    -0.3106   0.2534  -0.1001  -0.0821  -0.0579   0.0116  -0.2403
  11 C2  :2px    0.0167   0.1907   0.2498  -0.0287  -0.1757   0.0570   0.0113
  12 C2  :2py    0.1707   0.1904  -0.0382  -0.0921   0.1876   0.0065   0.0996
  13 C2  :2px   -0.0467   0.2123   0.1750  -0.0569   0.0638  -0.1002  -0.1678
  14 C2  :2py    0.0879   0.0699   0.0225   0.0016  -0.0311  -0.1485   0.0397
  15 O3  :1s    -0.0347   0.0699  -0.0946  -0.0286   0.0397   0.0023  -0.0089
  16 O3  :1s     0.0353  -0.0652   0.0799   0.0269  -0.0378  -0.0062   0.0174
  17 O3  :1s     0.1224  -0.2698   0.4130   0.1022  -0.1087   0.0157   0.0130
  18 O3  :2px    0.0018   0.2059  -0.0508  -0.0798   0.2018  -0.3759  -0.0680
  19 O3  :2py    0.0419  -0.0311   0.2744   0.0970  -0.1914  -0.2889  -0.0431
  20 O3  :2px    0.0023   0.1743  -0.0402  -0.0735   0.2167  -0.3928  -0.0621
  21 O3  :2py    0.0388  -0.0348   0.2411   0.1029  -0.1984  -0.3115  -0.0397
  22 O7  :1s    -0.0268   0.0005  -0.0647  -0.0288  -0.0768   0.0101  -0.0959
  23 O7  :1s     0.0258  -0.0033   0.0596   0.0241   0.0679   0.0054   0.0658
  24 O7  :1s     0.1097  -0.0023   0.2764   0.1456   0.3357  -0.1514   0.7760
  25 O7  :2px   -0.2755  -0.1103   0.1450   0.1230   0.2326   0.0326  -0.2508
  26 O7  :2py   -0.1893  -0.1070  -0.2116   0.0618  -0.2391  -0.2224   0.0537
  27 O7  :2px   -0.2284  -0.1147   0.1513   0.1282   0.2165   0.0254  -0.4735
  28 O7  :2py   -0.1633  -0.0923  -0.2104   0.0684  -0.2570  -0.2945   0.0691
  29 H4  :1s     0.0951   0.0102  -0.0763   0.2581   0.0299   0.0155  -0.0551
  30 H4  :1s     0.0470  -0.0033  -0.0182   0.2468   0.0486  -0.0421  -0.5118
  31 H5  :1s     0.0645  -0.1125  -0.0153  -0.1066   0.0330  -0.0396   0.0228
  32 H5  :1s     0.0270  -0.0865  -0.0054  -0.0897   0.0592  -0.0589  -0.1001
  33 H8  :1s     0.1850   0.0727  -0.0565  -0.0784  -0.1384  -0.0028  -0.1629
  34 H8  :1s     0.1357   0.0628  -0.0168  -0.0772  -0.1266   0.0671  -1.1821

    Orbital        15       16       17       18       19       20       21
   1 C1  :1s     0.1551  -0.0228   0.0777  -0.0730  -0.0227   0.0317  -0.0215
   2 C1  :1s    -0.0763   0.0104  -0.0214   0.0230  -0.0441  -0.1033   0.0665
   3 C1  :1s    -1.9950   0.3600  -0.9615   1.1628   0.8259   0.2991   0.1820
   4 C1  :2px   -0.1445   0.1365   0.2377  -0.0766   0.1030   0.8169  -0.5402
   5 C1  :2py    0.0986   0.3197  -0.0761   0.0714  -0.1704   0.2425   0.1908
   6 C1  :2px   -0.5160   0.4667   1.2125  -1.0242  -0.5748  -1.3603   0.6926
   7 C1  :2py    0.4206   1.1625  -0.1286   0.3713  -0.6481  -0.3934  -0.3070
   8 C2  :1s    -0.0164  -0.0293  -0.1871  -0.0109  -0.0167  -0.0207  -0.0038
   9 C2  :1s    -0.0285   0.0045   0.1094  -0.0016  -0.0662  -0.0261  -0.1024
  10 C2  :1s     0.2724   0.4162   2.1918  -0.2617   0.3664  -0.5281   0.8432
  11 C2  :2px   -0.0012   0.0450   0.0981  -0.4828  -0.1057   0.3298  -0.0094
  12 C2  :2py    0.0331   0.0655  -0.1657  -0.3058   0.3022   0.3802   0.8327
  13 C2  :2px   -0.0775   0.1299   0.5307  -1.3821  -1.2450  -0.8388  -0.3992
  14 C2  :2py    0.0453   0.0326  -0.2551  -0.5777   1.6853  -0.4394  -0.8136
  15 O3  :1s     0.0193   0.0176   0.0386   0.0238   0.1285   0.0064   0.0342
  16 O3  :1s    -0.0110  -0.0133  -0.0339  -0.0152  -0.0618  -0.0124  -0.0266
  17 O3  :1s    -0.1830  -0.1358  -0.3096  -0.2464  -1.6006  -0.0150  -0.1669
  18 O3  :2px   -0.0711  -0.0448  -0.0861   0.1435  -0.1537  -0.0384   0.0308
  19 O3  :2py    0.0147   0.0578   0.1283   0.1745   0.1273   0.0185   0.2011
  20 O3  :2px   -0.1073  -0.1010  -0.1966   0.2643  -0.4620   0.0914  -0.0820
  21 O3  :2py    0.0750   0.0856   0.2209   0.3598   0.5563   0.0989   0.3176
  22 O7  :1s    -0.0062   0.0049   0.0478   0.0632  -0.0405   0.0177   0.0029
  23 O7  :1s     0.0015   0.0061  -0.0342  -0.0492   0.0121  -0.0261   0.0330
  24 O7  :1s     0.0622  -0.1231  -0.3999  -0.5600   0.5003  -0.2038  -0.4452
  25 O7  :2px   -0.0663   0.1204  -0.1611  -0.0752   0.1118  -0.0872   0.0268
  26 O7  :2py   -0.0060   0.0114  -0.2319  -0.2534   0.0030   0.0530   0.1172
  27 O7  :2px   -0.1025   0.1775  -0.3623  -0.1365   0.3362   0.0338  -0.0834
  28 O7  :2py   -0.0452   0.0095  -0.4443  -0.5259   0.1316  -0.0757  -0.1608
  29 H4  :1s    -0.0113  -0.1244  -0.0186   0.0696  -0.1111   0.4190   0.1745
  30 H4  :1s     0.5114  -1.7567   0.1242  -0.3388   0.4712   0.1334  -0.0748
  31 H5  :1s     0.0532   0.0310  -0.0464   0.0291   0.0618   0.0194  -0.2300
  32 H5  :1s     1.2372   0.4173  -0.1921   0.0971  -0.3138   0.1148  -0.0820
  33 H8  :1s    -0.0313   0.0006  -0.0505  -0.0697  -0.0935   0.2051  -0.1146
  34 H8  :1s    -0.2301   0.3132  -0.3097  -0.2510   0.0709  -0.3287  -0.0963

    Orbital        22       23
   1 C1  :1s    -0.0026  -0.0137
   2 C1  :1s     0.0334  -0.0035
   3 C1  :1s    -0.9491  -0.0466
   4 C1  :2px    0.1835  -0.1282
   5 C1  :2py   -0.1862   0.8441
   6 C1  :2px    0.2928   0.2890
   7 C1  :2py    0.4230  -2.1024
   8 C2  :1s    -0.0574  -0.0042
   9 C2  :1s     0.2814   0.0898
  10 C2  :1s     0.2305   0.1632
  11 C2  :2px   -0.9079  -0.2974
  12 C2  :2py    0.4019  -0.3410
  13 C2  :2px    1.7145   0.3650
  14 C2  :2py   -0.5363   1.7552
  15 O3  :1s     0.0082   0.0341
  16 O3  :1s    -0.0315  -0.0131
  17 O3  :1s     0.5153  -0.6701
  18 O3  :2px   -0.2841  -0.0208
  19 O3  :2py    0.1480  -0.0679
  20 O3  :2px   -0.1722  -0.2891
  21 O3  :2py    0.0028   0.0582
  22 O7  :1s     0.0165  -0.0097
  23 O7  :1s    -0.0337  -0.0498
  24 O7  :1s    -0.0332   0.6823
  25 O7  :2px    0.0693  -0.0595
  26 O7  :2py    0.0256  -0.0750
  27 O7  :2px   -0.1168   0.2270
  28 O7  :2py    0.0819   0.2652
  29 H4  :1s    -0.0496   0.2003
  30 H4  :1s    -0.1270   0.6843
  31 H5  :1s     0.0215  -0.2056
  32 H5  :1s     0.0636  -0.4125
  33 H8  :1s     0.3107   0.2795
  34 H8  :1s     0.0132  -0.0195

 Molecular orbitals for symmetry species 2  (A" )
 ------------------------------------------------

    Orbital         1        2        3        4        5        6        7
   1 C1  :2pz    0.2714   0.2802   0.0093   0.0067  -0.3788   0.3901  -0.7564
   2 C1  :2pz    0.1883   0.2582  -0.0207   0.2087  -1.3369  -0.5827   1.6968
   3 C2  :2pz    0.2616  -0.1824  -0.0971   0.4732   0.1539   0.8613   0.5500
   4 C2  :2pz    0.2302  -0.2134  -0.0687   0.5271   0.3794  -0.7866  -1.1182
   5 O3  :2pz    0.1753  -0.2096  -0.3402  -0.3347  -0.0745   0.0395   0.1060
   6 O3  :2pz    0.1557  -0.2021  -0.3819  -0.4554  -0.1417   0.0979   0.1534
   7 O7  :2pz    0.1804  -0.2375   0.4094  -0.1983  -0.0908   0.0673   0.1130
   8 O7  :2pz    0.1785  -0.2474   0.4787  -0.2643  -0.1108   0.0990   0.1068
   9 H5  :1s     0.1411   0.1719   0.0113  -0.0982   0.0711   0.3303  -0.3349
  10 H5  :1s     0.1202   0.1501   0.0542  -0.3506   1.3516   0.0071  -0.3496

    Orbital         8        9       10
   1 C1  :2pz    0.7292   0.0624   0.0386
   2 C1  :2pz   -0.8595  -0.1884  -0.3805
   3 C2  :2pz    0.1385  -0.0296  -0.1043
   4 C2  :2pz   -0.1507   0.1374   0.7233
   5 O3  :2pz    0.0901  -0.5367   0.8665
   6 O3  :2pz   -0.0296   0.4868  -1.0582
   7 O7  :2pz   -0.0261   0.8692   0.5298
   8 O7  :2pz    0.0413  -0.8784  -0.6830
   9 H5  :1s    -0.8047  -0.0566   0.0878
  10 H5  :1s     1.2141   0.1768   0.0628

  Total CPU  time used in SIRIUS :   5.78 seconds
  Total wall time used in SIRIUS :   5.77 seconds

 
     Date and time (Linux)  : Thu May  7 17:31:24 2026
     Host name              : debian                                  


                     .---------------------------------------.
                     | End of Wave Function Section (SIRIUS) |
                     `---------------------------------------'

  Total CPU  time used in DALTON:   5.83 seconds
  Total wall time used in DALTON:   5.83 seconds

 
     Date and time (Linux)  : Thu May  7 17:31:24 2026
     Host name              : debian                                  
