

     ************************************************************************
     *************** Dalton - An Electronic Structure Program ***************
     ************************************************************************

    This is output from DALTON release Dalton2025.0-dev (2025)
         ( Web site: http://daltonprogram.org )

   ----------------------------------------------------------------------------

    NOTE:
     
    Dalton is an experimental code for the evaluation of molecular
    properties using (MC)SCF, DFT, CI, and CC wave functions.
    The authors accept no responsibility for the performance of
    the code or for the correctness of the results.
     
    The code (in whole or part) is provided under a licence and
    is not to be reproduced for further distribution without
    the written permission of the authors or their representatives.
     
    See the home page "http://daltonprogram.org" for further information.
     
    If results obtained with this code are published,
    the appropriate citations would be both of:
     
       K. Aidas, C. Angeli, K. L. Bak, V. Bakken,
       R. Bast, L. Boman, O. Christiansen, R. Cimiraglia,
       S. Coriani, P. Dahle, E. K. Dalskov, U. Ekstroem,
       T. Enevoldsen, J. J. Eriksen, P. Ettenhuber, B. Fernandez,
       L. Ferrighi, H. Fliegl, L. Frediani, K. Hald, A. Halkier,
       C. Haettig, H. Heiberg, T. Helgaker, A. C. Hennum,
       H. Hettema, E. Hjertenaes, S. Hoest, I.-M. Hoeyvik,
       M. F. Iozzi, B. Jansik, H. J. Aa. Jensen, D. Jonsson,
       P. Joergensen, J. Kauczor, S. Kirpekar,
       T. Kjaergaard, W. Klopper, S. Knecht, R. Kobayashi, H. Koch,
       J. Kongsted, A. Krapp, K. Kristensen, A. Ligabue,
       O. B. Lutnaes, J. I. Melo, K. V. Mikkelsen, R. H. Myhre,
       C. Neiss, C. B. Nielsen, P. Norman, J. Olsen,
       J. M. H. Olsen, A. Osted, M. J. Packer, F. Pawlowski,
       T. B. Pedersen, P. F. Provasi, S. Reine, Z. Rinkevicius,
       T. A. Ruden, K. Ruud, V. Rybkin, P. Salek, C. C. M. Samson,
       A. Sanchez de Meras, T. Saue, S. P. A. Sauer,
       B. Schimmelpfennig, K. Sneskov, A. H. Steindal,
       K. O. Sylvester-Hvid, P. R. Taylor, A. M. Teale,
       E. I. Tellgren, D. P. Tew, A. J. Thorvaldsen, L. Thoegersen,
       O. Vahtras, M. A. Watson, D. J. D. Wilson, M. Ziolkowski
       and H. Agren,
       "The Dalton quantum chemistry program system",
       WIREs Comput. Mol. Sci. 2014, 4:269-284 (doi: 10.1002/wcms.1172)
     
    and
     
       Dalton, a molecular electronic structure program,
       Release Dalton2025.0-dev (2025), see http://daltonprogram.org
   ----------------------------------------------------------------------------

    Authors in alphabetical order (Major contribution(s) in parenthesis):

  Kestutis Aidas,              Vilnius University,        Lithuania   (QM/MM)
  Celestino Angeli,            University of Ferrara,     Italy       (NEVPT2)
  Juan J. Aucar,               Northeast National UniversiArgentina   (LRESC, Relativistic Effects on NMR Shieldings and EFG)
  Keld L. Bak,                 UNI-C,                     Denmark     (AOSOPPA, non-adiabatic coupling, magnetic properties)
  Vebjoern Bakken,             University of Oslo,        Norway      (DALTON; geometry optimizer, symmetry detection)
  Radovan Bast,                UiT The Arctic U. of NorwayNorway      (DALTON installation and execution frameworks)
  Pablo Baudin,                University of Valencia,    Spain       (Cholesky excitation energies)
  Linus Boman,                 NTNU,                      Norway      (Cholesky decomposition and subsystems)
  Bruno N. Cabral Tenorio,     Technical Univ. of Denmark,Denmark     (Lanczos-based CC methods)
  Ove Christiansen,            Aarhus University,         Denmark     (CC module)
  Renzo Cimiraglia,            University of Ferrara,     Italy       (NEVPT2)
  Sonia Coriani,               Technical Univ. of Denmark,Denmark     (CC and RESPONS modules)
  Janusz Cukras,               University of Warsaw,      Poland      (MChD in RESPONS)
  Paal Dahle,                  University of Oslo,        Norway      (Parallelization)
  Erik K. Dalskov,             UNI-C,                     Denmark     (SOPPA)
  Thomas Enevoldsen,           Univ. of Southern Denmark, Denmark     (SOPPA)
  Janus J. Eriksen,            Aarhus University,         Denmark     (Polarizable embedding, TDA)
  Rasmus Faber,                Technical Univ. of Denmark,Denmark     (Vib.avg. NMR w. SOPPA, parallel AO-SOPPA, CVS-CC and EOMCC)
  Tobias Fahleson,             KTH Stockholm,             Sweden      (Damped cubic response)
  Berta Fernandez,             U. of Santiago de CompostelSpain       (Doublet spin, ESR in RESPONS)
  Lara Ferrighi,               Aarhus University,         Denmark     (PCM Cubic response)
  Heike Fliegl,                University of Oslo,        Norway      (CCSD(R12))
  Luca Frediani,               UiT The Arctic U. of NorwayNorway      (PCM)
  Emmanuel Fromager,           Univ. Strasbourg,          France      (MC-srDFT)
  Bin Gao,                     UiT The Arctic U. of NorwayNorway      (Gen1Int library)
  Andre S. P. Gomes,           CNRS/Universite de Lille,  France      (Frozen density embedding)
  Christof Haettig,            Ruhr-University Bochum,    Germany     (CC module)
  Kasper Hald,                 Aarhus University,         Denmark     (CC module)
  Asger Halkier,               Aarhus University,         Denmark     (CC module)
  Frederik Beyer Hansen,       University of Copenhagen,  Denmark     (Parallel AO-SOPPA)
  Erik D. Hedegaard,           Univ. of Southern Denmark, Denmark     (Polarizable embedding, QM/MM, and MC-srDFT)
  Hanne Heiberg,               University of Oslo,        Norway      (Geometry analysis, selected one-electron integrals)
  Trygve Helgaker,             University of Oslo,        Norway      (DALTON; ABACUS, ERI, DFT modules, London, and much more)
  Alf Christian Hennum,        University of Oslo,        Norway      (Parity violation)
  Hinne Hettema,               University of Auckland,    New Zealand (Quadratic response in RESPONS; SIRIUS supersymmetry)
  Andreas E. Hillers-Bendtsen, University of Copenhagen,  Denmark     (MP3)
  Eirik Hjertenaes,            NTNU,                      Norway      (Cholesky decomposition)
  Nicolai Machholdt Hoeyer,    Aarhus University,         Denmark     (MP3)
  Pi A. B. Haase,              University of Copenhagen,  Denmark     (Triplet AO-SOPPA)
  Maria Francesca Iozzi,       University of Oslo,        Norway      (RPA)
  Christoph Jacob,             TU Braunschweig            Germany     (Frozen density embedding)
  Brano Jansik,                Technical Univ. of Ostrava Czech Rep.  (DFT cubic response)
  Hans Joergen Aa. Jensen,     Univ. of Southern Denmark, Denmark     (DALTON; SIRIUS, RESPONS, ABACUS, MC-srDFT, and much more)
  Dan Jonsson,                 UiT The Arctic U. of NorwayNorway      (Cubic response in RESPONS module)
  Poul Joergensen,             Aarhus University,         Denmark     (RESPONS, ABACUS, and CC modules)
  Maciej Kaminski,             University of Warsaw,      Poland      (CPPh in RESPONS)
  Joanna Kauczor,              Linkoeping University,     Sweden      (Complex polarization propagator (CPP) module)
  Sheela Kirpekar,             Univ. of Southern Denmark, Denmark     (Mass-velocity & Darwin integrals)
  Frederik Oersted Kjeldal,    Technical Univ. of Denmark,Denmark     (MP3)
  Erik Kjellgren,              Univ. of Southern Denmark, Denmark     (MC-srDFT)
  Wim Klopper,                 KIT Karlsruhe,             Germany     (R12 code in CC, SIRIUS, and ABACUS modules)
  Stefan Knecht,               ETH Zurich,                Switzerland (Parallel CI and MCSCF, MC-srDFT)
  Rika Kobayashi,              Australian National Univ., Australia   (DIIS in CC, London in MCSCF)
  Henrik Koch,                 NTNU,                      Norway      (CC module, Cholesky decomposition)
  Jacob Kongsted,              Univ. of Southern Denmark, Denmark     (Polarizable embedding, polarizable density embedding, QM/MM)
  Andrea Ligabue,              University of Modena,      Italy       (CTOCD, AOSOPPA)
  Nanna H. List,               Univ. of Southern Denmark, Denmark     (Polarizable embedding)
  Ola B. Lutnaes,              University of Oslo,        Norway      (DFT Hessian)
  Juan I. Melo,                University of Buenos Aires,Argentina   (LRESC, Relativistic Effects on NMR Shieldings)
  Kurt V. Mikkelsen,           University of Copenhagen,  Denmark     (MC-SCRF, QM/MM, and MP3)
  Rolf H. Myhre,               NTNU,                      Norway      (Subsystems and CC3)
  Christian Neiss,             Univ. Erlangen-Nuernberg,  Germany     (CCSD(R12))
  Christian B. Nielsen,        University of Copenhagen,  Denmark     (QM/MM)
  Patrick Norman,              KTH Stockholm,             Sweden      (Cubic response and complex frequency response in RESPONS)
  Jeppe Olsen,                 Aarhus University,         Denmark     (SIRIUS CI/density modules)
  Jogvan Magnus H. Olsen,      Aarhus University,         Denmark     (Polarizable embedding and polarizable density embedding)
  Anders Osted,                Copenhagen University,     Denmark     (QM/MM)
  Martin J. Packer,            University of Sheffield,   UK          (SOPPA)
  Filip Pawlowski,             Kazimierz Wielki UniversityPoland      (CC3)
  Morten N. Pedersen,          Univ. of Southern Denmark, Denmark     (Polarizable embedding)
  Thomas B. Pedersen,          University of Oslo,        Norway      (Cholesky decomposition)
  Patricio F. Provasi,         University of Northeastern,Argentina   (Analysis of coupling constants in localized orbitals)
  Peter Reinholdt,             Univ. of Southern Denmark, Denmark     (Polarizable embedding and polarizable density embedding)
  Zilvinas Rinkevicius,        KTH Stockholm,             Sweden      (open-shell DFT, ESR)
  Elias Rudberg,               KTH Stockholm,             Sweden      (DFT grid and basis info)
  Torgeir A. Ruden,            University of Oslo,        Norway      (Numerical derivatives in ABACUS)
  Kenneth Ruud,                UiT The Arctic U. of NorwayNorway      (DALTON; ABACUS magnetic properties and much more)
  Pawel Salek,                 KTH Stockholm,             Sweden      (DALTON; DFT code)
  Claire C. M. Samson,         University of Karlsruhe    Germany     (Boys localization, r12 integrals in ERI)
  Alfredo Sanchez de Meras,    University of Valencia,    Spain       (CC module, Cholesky decomposition)
  Trond Saue,                  Paul Sabatier University,  France      (direct Fock matrix construction)
  Stephan P. A. Sauer,         University of Copenhagen,  Denmark     (SOPPA(CCSD), SOPPA prop., AOSOPPA, vibrational g-factors)
  Bernd Schimmelpfennig,       Forschungszentrum KarlsruheGermany     (AMFI module)
  Anna K. Schnack-Petersen,    University of Copenhagen,  Denmark     (RPA(D) and HRPA(D) properties in AOSOPPA)
  Kristian Sneskov,            Aarhus University,         Denmark     (Polarizable embedding, QM/MM)
  Arnfinn H. Steindal,         UiT The Arctic U. of NorwayNorway      (parallel QM/MM, polarizable embedding)
  Casper Steinmann,            Aalborg University,        Denmark     (QFIT, polarizable embedding)
  K. O. Sylvester-Hvid,        University of Copenhagen,  Denmark     (MC-SCRF)
  Peter R. Taylor,             VLSCI/Univ. of Melbourne,  Australia   (Symmetry handling ABACUS, integral transformation)
  Andrew M. Teale,             University of Nottingham,  England     (DFT-AC, DFT-D)
  David P. Tew,                University of Bristol,     England     (CCSD(R12))
  Julien Toulouse,             Sorbonne Univ.,            France      (MC-srDFT)
  Olav Vahtras,                KTH Stockholm,             Sweden      (Triplet response, spin-orbit, ESR, TDDFT, open-shell DFT)
  Lucas Visscher,              Vrije Universiteit AmsterdaNetherlands (Frozen density embedding)
  David J. Wilson,             La Trobe University,       Australia   (DFT Hessian and DFT magnetizabilities)
  Luna Zamok,                  University of Copenhagen,  Denmark     (Block Lanczos RPA solver in SOPPA module)
  Hans Agren,                  KTH Stockholm,             Sweden      (SIRIUS module, RESPONS, MC-SCRF solvation)
 --------------------------------------------------------------------------------

     Date and time (Linux)  : Thu May  7 17:03:49 2026
     Host name              : debian                                  

 * Work memory size             :    64000000 =  488.28 megabytes.

 * Directories for basis set searches:
   1) /home/vdwv/DIPLOM_ITMO/CALCULATIONS_AND_SOFTS/softwares/Dalton_Shenanigans/dalton/dalton/build/diplom_files/ccl2o/dft/ccl2o_dft_b3lyp_ccpvdz
   2) /home/vdwv/DIPLOM_ITMO/CALCULATIONS_AND_SOFTS/softwares/Dalton_Shenanigans/dalton/dalton/build/basis


Compilation information
-----------------------

 Who compiled             | vdwv
 Host                     | debian
 System                   | Linux-6.12.73+deb13-amd64
 CMake generator          | Unix Makefiles
 Processor                | x86_64
 64-bit integers          | OFF
 MPI                      | OFF
 Fortran compiler         | /usr/bin/gfortran
 Fortran compiler version | GNU Fortran (Debian 14.2.0-19) 14.2.0
 C compiler               | /usr/bin/gcc
 C compiler version       | gcc (Debian 14.2.0-19) 14.2.0
 C++ compiler             | /usr/bin/g++
 C++ compiler version     | g++ (Debian 14.2.0-19) 14.2.0
 BLAS                     | /opt/intel/oneapi/mkl/2025.3/lib/intel64/libmkl_gf
                          | _lp64.so;/opt/intel/oneapi/mkl/2025.3/lib/intel64/
                          | libmkl_sequential.so;/opt/intel/oneapi/mkl/2025.3/
                          | lib/intel64/libmkl_core.so;/usr/lib/x86_64-linux-g
                          | nu/libpthread.a;/usr/lib/x86_64-linux-gnu/libm.so
 LAPACK                   | /opt/intel/oneapi/mkl/2025.3/lib/intel64/libmkl_la
                          | pack95_lp64.a;/opt/intel/oneapi/mkl/2025.3/lib/int
                          | el64/libmkl_gf_lp64.so
 Static linking           | OFF
 Last Git revision        | 1892235f9264b9be21ec2fefe6e0081d659ab244
 Git branch               | master
 Configuration time       | 2026-05-04 17:50:26.788788

 * Sequential calculation.


   Content of the .dal input file
 ----------------------------------

BASIS
cc-pVDZ
Phosgene CCl2O using the cc-pVDZ basis
Using automatic symmetry detection
AtomTypes=3 Angstrom
Charge=8.0 Atoms=1
O      0.000      0.000      1.687
Charge=6.0 Atoms=1
C      0.000      0.000      0.508
Charge=17.0 Atoms=2
Cl1    0.000      1.464     -0.487
Cl2    0.000     -1.464     -0.487

**DALTON INPUT
.RUN WAVE FUN
**WAVE FUN
.DFT
 B3LYP
**END OF



       *******************************************************************
       *********** Output from DALTON general input processing ***********
       *******************************************************************

 --------------------------------------------------------------------------------
   Overall default print level:    0
   Print level for DALTON.STAT:    1

    HERMIT 1- and 2-electron integral sections will be executed
    "Old" integral transformation used (limited to max 255 basis functions)
    Wave function sections will be executed (SIRIUS module)
 --------------------------------------------------------------------------------


   ****************************************************************************
   *************** Output of molecule and basis set information ***************
   ****************************************************************************


    The two title cards from your ".mol" input:
    --------------------------------------------------------------------------------
 1: Phosgene CCl2O using the cc-pVDZ basis
 2: Using automatic symmetry detection
    --------------------------------------------------------------------------------

  Coordinates are entered in Angstrom and converted to atomic units.
          - Conversion factor : 1 bohr = 0.52917721080 A

  Atomic type no.    1
  --------------------
  Nuclear charge:   8.00000
  Number of symmetry independent centers:    1
  Number of basis sets to read;    2
  Basis set file used for this atomic type with Z =   8 :
     "/home/vdwv/DIPLOM_ITMO/CALCULATIONS_AND_SOFTS/softwares/Dalton_Shenanigans/dalton/dalton/build/basis/cc-pVDZ"

  Atomic type no.    2
  --------------------
  Nuclear charge:   6.00000
  Number of symmetry independent centers:    1
  Number of basis sets to read;    2
  Basis set file used for this atomic type with Z =   6 :
     "/home/vdwv/DIPLOM_ITMO/CALCULATIONS_AND_SOFTS/softwares/Dalton_Shenanigans/dalton/dalton/build/basis/cc-pVDZ"

  Atomic type no.    3
  --------------------
  Nuclear charge:  17.00000
  Number of symmetry independent centers:    2
  Number of basis sets to read;    2
  Basis set file used for this atomic type with Z =  17 :
     "/home/vdwv/DIPLOM_ITMO/CALCULATIONS_AND_SOFTS/softwares/Dalton_Shenanigans/dalton/dalton/build/basis/cc-pVDZ"


                      SYMADD: Addition of symmetry requested
                      --------------------------------------

 Symmetry test threshold:  5.00E-06

@  The molecule has been centered at center of mass and rotated
@  so the principal axes of inertia are along coordinate axes.

 Symmetry class found: C(2v)          

 Symmetry Independent Centres             
 ----------------------------
Cl2   17 :      0.00000000     2.76655905     0.90138171  Isotope  1
O      8 :      0.00000000     0.00000000    -3.20688289  Isotope  1
C      6 :      0.00000000     0.00000000    -0.97889579  Isotope  1

 The following symmetry elements were found:   X  Y     


                         SYMGRP: Point group information
                         -------------------------------

@    Full point group is: C(2v)          
@    Represented as:      C2v

@  * The irrep name for each symmetry:    1: A1     2: B1     3: B2     4: A2 

   * The point group was generated by:

      Reflection in the yz-plane
      Reflection in the xz-plane

   * Group multiplication table

        |  E   C2z  Oxz  Oyz
   -----+--------------------
     E  |  E   C2z  Oxz  Oyz
    C2z | C2z   E   Oyz  Oxz
    Oxz | Oxz  Oyz   E   C2z
    Oyz | Oyz  Oxz  C2z   E 

   * Character table

        |  E   C2z  Oxz  Oyz
   -----+--------------------
    A1  |   1    1    1    1
    B1  |   1   -1    1   -1
    B2  |   1   -1   -1    1
    A2  |   1    1   -1   -1

   * Direct product table

        | A1   B1   B2   A2 
   -----+--------------------
    A1  | A1   B1   B2   A2 
    B1  | B1   A1   A2   B2 
    B2  | B2   A2   A1   B1 
    A2  | A2   B2   B1   A1 


                                 Isotopic Masses
                                 ---------------

                           O          15.994915
                           C          12.000000
                           Cl2 _1     34.968853
                           Cl2 _2     34.968853

                       Total mass:    97.932621 amu
                       Natural abundance:  56.643 %

 Center-of-mass coordinates (a.u.):    0.000000    0.000000   -0.000000
 Center-of-mass coordinates (Angs):    0.000000    0.000000   -0.000000


  Atoms and basis sets
  --------------------

  Number of atom types :    3
  Total number of atoms:    4

  Basis set used is "cc-pVDZ" from the basis set library.

  label    atoms   charge   prim   cont     basis
  ----------------------------------------------------------------------
  O           1    8.0000    26    14      [9s4p1d|3s2p1d]                                    
  C           1    6.0000    26    14      [9s4p1d|3s2p1d]                                    
  Cl          2   17.0000    41    18      [12s8p1d|4s3p1d]                                   
  ----------------------------------------------------------------------
  total:      4   48.0000   134    64
  ----------------------------------------------------------------------
  Spherical harmonic basis used.

  Threshold for neglecting AO integrals:  1.00D-12


  Cartesian Coordinates (bohr)
  ----------------------------

  Total number of coordinates:   12
  O       :     1  x   0.0000000000    2  y   0.0000000000    3  z  -3.2068828903
  C       :     4  x   0.0000000000    5  y   0.0000000000    6  z  -0.9788957889
  Cl2 / 1 :     7  x   0.0000000000    8  y   2.7665590470    9  z   0.9013817055
  Cl2 / 2 :    10  x   0.0000000000   11  y  -2.7665590470   12  z   0.9013817055


  Cartesian Coordinates (xyz format; angstrom)
  --------------------------------------------

    4

  O        0.0000000000            0.0000000000           -1.6970093432
  C        0.0000000000            0.0000000000           -0.5180093432
 Cl        0.0000000000            1.4640000000            0.4769906568
 Cl        0.0000000000           -1.4640000000            0.4769906568


  Symmetry Coordinates
  --------------------

  Number of coordinates in each symmetry:     4    3    4    1

  Symmetry  A1  ( 1)

    1   O     z    3
    2   C     z    6
    3   Cl2   y    [  8  -   11 ]/2
    4   Cl2   z    [  9  +   12 ]/2

  Symmetry  B1  ( 2)

    5   O     x    1
    6   C     x    4
    7   Cl2   x    [  7  +   10 ]/2

  Symmetry  B2  ( 3)

    8   O     y    2
    9   C     y    5
   10   Cl2   y    [  8  +   11 ]/2
   11   Cl2   z    [  9  -   12 ]/2

  Symmetry  A2  ( 4)

   12   Cl2   x    [  7  -   10 ]/2


   Interatomic separations (in Angstrom):
   --------------------------------------

            O           C           Cl2 _1      Cl2 _2
            ------      ------      ------      ------
 O     :    0.000000
 C     :    1.179000    0.000000
 Cl2 _1:    2.620987    1.770119    0.000000
 Cl2 _2:    2.620987    1.770119    2.928000    0.000000


  Max    interatomic separation is    2.9280 Angstrom (    5.5331 Bohr)
  between atoms    4 and    3, "Cl2 _2" and "Cl2 _1".

  Min YX interatomic separation is    1.1790 Angstrom (    2.2280 Bohr)


  Bond distances (Angstrom):
  --------------------------

                  atom 1     atom 2       distance
                  ------     ------       --------
  bond distance:  C          O            1.179000
  bond distance:  Cl2 _1     C            1.770119
  bond distance:  Cl2 _2     C            1.770119


  Bond angles (degrees):
  ----------------------

                  atom 1     atom 2     atom 3         angle
                  ------     ------     ------         -----
  bond angle:     O          C          Cl2 _1       124.202
  bond angle:     O          C          Cl2 _2       124.202
  bond angle:     Cl2 _1     C          Cl2 _2       111.596




 Principal moments of inertia (u*A**2) and principal axes
 --------------------------------------------------------

   IA      65.195044          0.000000    1.000000    0.000000
   IB     149.897206          0.000000    0.000000    1.000000
   IC     215.092250          1.000000    0.000000    0.000000


 Rotational constants
 --------------------

@    The molecule is planar.

               A                   B                   C

           7751.8009           3371.5039           2349.5919 MHz
            0.258572            0.112461            0.078374 cm-1


@  Nuclear repulsion energy :  189.677672774154 Hartree


  Symmetry Orbitals
  -----------------

  Number of orbitals in each symmetry:          27   11   19    7


  Symmetry  A1 ( 1)

    1     O        1s         1
    2     O        1s         2
    3     O        1s         3
    4     O        2pz        6
    5     O        2pz        9
    6     O        3d0       12
    7     O        3d2+      14
    8     C        1s        15
    9     C        1s        16
   10     C        1s        17
   11     C        2pz       20
   12     C        2pz       23
   13     C        3d0       26
   14     C        3d2+      28
   15     Cl2      1s        29 +   30
   16     Cl2      1s        31 +   32
   17     Cl2      1s        33 +   34
   18     Cl2      1s        35 +   36
   19     Cl2      2py       39 -   40
   20     Cl2      2pz       41 +   42
   21     Cl2      2py       45 -   46
   22     Cl2      2pz       47 +   48
   23     Cl2      2py       51 -   52
   24     Cl2      2pz       53 +   54
   25     Cl2      3d1-      57 -   58
   26     Cl2      3d0       59 +   60
   27     Cl2      3d2+      63 +   64


  Symmetry  B1 ( 2)

   28     O        2px        4
   29     O        2px        7
   30     O        3d1+      13
   31     C        2px       18
   32     C        2px       21
   33     C        3d1+      27
   34     Cl2      2px       37 +   38
   35     Cl2      2px       43 +   44
   36     Cl2      2px       49 +   50
   37     Cl2      3d2-      55 -   56
   38     Cl2      3d1+      61 +   62


  Symmetry  B2 ( 3)

   39     O        2py        5
   40     O        2py        8
   41     O        3d1-      11
   42     C        2py       19
   43     C        2py       22
   44     C        3d1-      25
   45     Cl2      1s        29 -   30
   46     Cl2      1s        31 -   32
   47     Cl2      1s        33 -   34
   48     Cl2      1s        35 -   36
   49     Cl2      2py       39 +   40
   50     Cl2      2pz       41 -   42
   51     Cl2      2py       45 +   46
   52     Cl2      2pz       47 -   48
   53     Cl2      2py       51 +   52
   54     Cl2      2pz       53 -   54
   55     Cl2      3d1-      57 +   58
   56     Cl2      3d0       59 -   60
   57     Cl2      3d2+      63 -   64


  Symmetry  A2 ( 4)

   58     O        3d2-      10
   59     C        3d2-      24
   60     Cl2      2px       37 -   38
   61     Cl2      2px       43 -   44
   62     Cl2      2px       49 -   50
   63     Cl2      3d2-      55 +   56
   64     Cl2      3d1+      61 -   62

  Symmetries of electric field:  B1 (2)  B2 (3)  A1 (1)

  Symmetries of magnetic field:  B2 (3)  B1 (2)  A2 (4)


                     .---------------------------------------.
                     | Starting in Integral Section (HERMIT) |
                     `---------------------------------------'



 ***************************************************************************************
 ****************** Output from **INTEGRALS input processing (HERMIT) ******************
 ***************************************************************************************


 - Using defaults, no **INTEGRALS input found

 Default print level:        1

 Calculation of one- and two-electron Hamiltonian integrals.

 Center of mass  (bohr):      0.000000000000      0.000000000000     -0.000000000000
 Operator center (bohr):      0.000000000000      0.000000000000      0.000000000000
 Gauge origin    (bohr):      0.000000000000      0.000000000000     -0.000000000000
 Dipole origin   (bohr):      0.000000000000      0.000000000000     -0.000000000000

Calculation of 2-electron integrals are postponed until they are needed.


     ************************************************************************
     ************************** Output from HERINT **************************
     ************************************************************************



                      Nuclear contribution to dipole moments
                      --------------------------------------

                 au               Debye          C m (/(10**-30)

      z     -0.88145987        -2.24044737        -7.47332799


  Total CPU  time used in HERMIT:   0.07 seconds
  Total wall time used in HERMIT:   0.07 seconds


                        .----------------------------------.
                        | End of Integral Section (HERMIT) |
                        `----------------------------------'



                   .--------------------------------------------.
                   | Starting in Wave Function Section (SIRIUS) |
                   `--------------------------------------------'


 *** Output from Huckel module :

     Using EWMO model:          F
     Using EHT  model:          T
     Number of Huckel orbitals each symmetry:   16    6   12    4

 Huckel EHT eigenvalues for symmetry :  1
         -104.886678     -20.707990     -11.377053     -10.618918      -8.073895
           -8.072346      -1.513749      -1.223401      -0.759969      -0.597525
           -0.507426      -0.316769      -0.195357      -0.056375      -0.052148
           -0.029807

 Huckel EHT eigenvalues for symmetry :  2
           -8.072466      -0.706470      -0.531581      -0.314851      -0.056322
           -0.048953

 Huckel EHT eigenvalues for symmetry :  3
         -104.887230     -10.619268      -8.073399      -8.072053      -1.139579
           -0.677957      -0.494538      -0.460933      -0.238394      -0.054749
           -0.050981      -0.045650

 Huckel EHT eigenvalues for symmetry :  4
           -8.072189      -0.490864      -0.055234      -0.053595

 **********************************************************************
 *SIRIUS* a direct, restricted step, second order MCSCF program       *
 **********************************************************************

 
     Date and time (Linux)  : Thu May  7 17:03:49 2026
     Host name              : debian                                  

 Title lines from ".mol" input file:
     Phosgene CCl2O using the cc-pVDZ basis
     Using automatic symmetry detection

 Print level on unit LUPRI =   2 is   0
 Print level on unit LUW4  =   2 is   5

@    Restricted, closed shell Kohn-Sham DFT calculation.

 Initial molecular orbitals are obtained according to
 ".MOSTART EHT   " input option

     Wave function specification
     ============================
@    Wave function type        --- KS-DFT ---
@    Number of closed shell electrons          48
@    Number of electrons in active shells       0
@    Total charge of the molecule               0

@    Spin multiplicity and 2 M_S                1         0
@    Total number of symmetries                 4 (point group: C2v)
@    Reference state symmetry                   1 (irrep name : A1 )
 
     This is a DFT calculation of type: B3LYP
 Weighted mixed functional:
               HF exchange:    0.20000
                       VWN:    0.19000
                       LYP:    0.81000
                     Becke:    0.72000
                    Slater:    0.80000

     Orbital specifications
     ======================
@    Abelian symmetry species          All |    1    2    3    4
@                                          |  A1   B1   B2   A2 
                                       --- |  ---  ---  ---  ---
@    Total number of orbitals           64 |   27   11   19    7
@    Number of basis functions          64 |   27   11   19    7

      ** Automatic occupation of RKS orbitals **

      -- Initial occupation of symmetries is determined from extended Huckel guess.           
      -- Initial occupation of symmetries is :
@    Occupied SCF orbitals              24 |   11    3    8    2

     Maximum number of Fock   iterations      0
     Maximum number of DIIS   iterations     60
     Maximum number of QC-SCF iterations     60
     Threshold for SCF convergence     1.00D-05
 
     This is a DFT calculation of type: B3LYP
 Weighted mixed functional:
               HF exchange:    0.20000
                       VWN:    0.19000
                       LYP:    0.81000
                     Becke:    0.72000
                    Slater:    0.80000


 ***********************************************
 ***** DIIS acceleration of SCF iterations *****
 ***********************************************

 C1-DIIS algorithm; max error vectors =    8

 Automatic occupation of symmetries with  48 electrons.

 Iter     Total energy    Error norm  Delta(E)    SCF occupation
 -----------------------------------------------------------------------------

---> (Re)generating AOTWOINT


     ************************************************************************
     ************************** Output from HERINT **************************
     ************************************************************************


***  INFO  GETGAB: GABSO--- not found on AOGABINT. Regenerating.

 Threshold for neglecting two-electron integrals:  1.00D-12
 HERMIT - Number of two-electron integrals written:      534537 ( 24.7% )
 HERMIT - Megabytes written:                              6.180

  Total CPU  time used in TWOINT:   0.30 seconds
  Total wall time used in TWOINT:   0.30 seconds
  Time used in TWOINT     is       0.33 seconds
      K-S energy, electrons, error :    -56.540302725648  48.0000009022    9.02D-07
@  1  -1032.88967970       3.94D+00  -1.03D+03    11   3   8   2
      Virial theorem: -V/T =      2.001240
@    MULPOP   O      -0.68; C       0.74; Cl2 _1 -0.03; Cl2 _2 -0.03; 
   1  Level shift: doubly occupied orbital energies shifted by -2.00D-01
 -----------------------------------------------------------------------------
      K-S energy, electrons, error :    -56.622560963218  48.0000008503    8.50D-07
@  2  -1032.76428306       4.14D+00   1.25D-01    11   3   8   2
      Virial theorem: -V/T =      2.001360
@    MULPOP   O       1.18; C      -1.61; Cl2 _1  0.22; Cl2 _2  0.22; 
   2  Level shift: doubly occupied orbital energies shifted by -2.00D-01
 -----------------------------------------------------------------------------
      K-S energy, electrons, error :    -56.750813380896  48.0000008995    8.99D-07
@  3  -1033.56154380       7.37D-01  -7.97D-01    11   3   8   2
      Virial theorem: -V/T =      2.001053
@    MULPOP   O      -0.18; C       0.07; Cl2 _1  0.05; Cl2 _2  0.05; 
   3  Level shift: doubly occupied orbital energies shifted by -5.00D-02
 -----------------------------------------------------------------------------
      K-S energy, electrons, error :    -56.583076832932  48.0000008897    8.90D-07
@  4  -1033.57168969       4.70D-01  -1.01D-02    11   3   8   2
      Virial theorem: -V/T =      2.002479
@    MULPOP   O      -0.04; C       0.22; Cl2 _1 -0.09; Cl2 _2 -0.09; 
   4  Level shift: doubly occupied orbital energies shifted by -5.00D-02
 -----------------------------------------------------------------------------
      K-S energy, electrons, error :    -56.624116285663  48.0000008933    8.93D-07
@  5  -1033.58475430       1.11D-01  -1.31D-02    11   3   8   2
      Virial theorem: -V/T =      2.002318
@    MULPOP   O      -0.11; C       0.08; Cl2 _1  0.02; Cl2 _2  0.02; 
   5  Level shift: doubly occupied orbital energies shifted by -1.25D-02
 -----------------------------------------------------------------------------
      K-S energy, electrons, error :    -56.636750548021  48.0000008901    8.90D-07
@  6  -1033.58549484       1.48D-02  -7.41D-04    11   3   8   2
      Virial theorem: -V/T =      2.002113
@    MULPOP   O      -0.08; C       0.08; Cl2 _1 -0.00; Cl2 _2 -0.00; 
 -----------------------------------------------------------------------------
      K-S energy, electrons, error :    -56.631669095175  48.0000008901    8.90D-07
@  7  -1033.58550686       4.26D-03  -1.20D-05    11   3   8   2
      Virial theorem: -V/T =      2.002171
@    MULPOP   O      -0.08; C       0.08; Cl2 _1 -0.00; Cl2 _2 -0.00; 
 -----------------------------------------------------------------------------
      K-S energy, electrons, error :    -56.632406202776  48.0000008900    8.90D-07
@  8  -1033.58550793       8.97D-04  -1.07D-06    11   3   8   2
      Virial theorem: -V/T =      2.002164
@    MULPOP   O      -0.08; C       0.08; Cl2 _1 -0.00; Cl2 _2 -0.00; 
 -----------------------------------------------------------------------------
      K-S energy, electrons, error :    -56.632483737264  48.0000008900    8.90D-07
@  9  -1033.58550798       8.89D-05  -4.63D-08    11   3   8   2
      Virial theorem: -V/T =      2.002163
@    MULPOP   O      -0.08; C       0.08; Cl2 _1 -0.00; Cl2 _2 -0.00; 
 -----------------------------------------------------------------------------
      K-S energy, electrons, error :    -56.632479824412  48.0000008900    8.90D-07
@ 10  -1033.58550798       3.10D-05  -7.35D-10    11   3   8   2
      Virial theorem: -V/T =      2.002163
@    MULPOP   O      -0.08; C       0.08; Cl2 _1 -0.00; Cl2 _2 -0.00; 
 -----------------------------------------------------------------------------
      K-S energy, electrons, error :    -56.632478612095  48.0000008900    8.90D-07
@ 11  -1033.58550798       5.16D-06  -6.48D-11    11   3   8   2

@ *** DIIS converged in  11 iterations !
@     Converged SCF energy, gradient:  -1033.585507980901    5.16D-06
    - total time used in SIRFCK :              0.44 seconds


 *** SCF orbital energy analysis ***

 Only the 20 lowest virtual orbital energies printed in each symmetry.

 Number of electrons        :   48
 Closed shell orbitals      :   11    3    8    2

 Sym       Kohn-Sham orbital energies

1 A1   -101.57980591   -19.20480755   -10.39446348    -9.49875632    -7.26150645
         -7.25058492    -1.13170120    -0.90671170    -0.59840010    -0.50188492
         -0.37100049    -0.04493043     0.22086808     0.44552508     0.48046537
          0.51173535     0.60390114     0.68825926     0.71981402     0.86492313
          0.99435151     1.05180918     1.61884189     1.74578469     2.07500333
          2.62895313     3.40980129

2 B1     -7.25203792    -0.48208268    -0.35478658    -0.05936575     0.43145763
          0.52619815     0.68486674     0.78525363     1.01026212     1.29158244
          3.00614503

3 B2   -101.57980609    -9.49884738    -7.26150751    -7.25058577    -0.85848222
         -0.51938579    -0.34537206    -0.32089956     0.08383857     0.41933825
          0.48770737     0.55007846     0.69014002     0.74612228     0.88582006
          1.09808578     1.21579461     1.71621379     3.12661585

4 A2     -7.25203886    -0.35089376     0.54519692     0.59736105     0.70839157
          1.27932468     2.60269013

    E(LUMO) :    -0.05936575 au (symmetry 2)
  - E(HOMO) :    -0.32089956 au (symmetry 3)
  ------------------------------------------
    gap     :     0.26153381 au

 --- Writing SIRIFC interface file

--------------------------------------------------------------------------------


     .-----------------------------------------------.
     | DFT KT IPs [a.u. & eV] from Koopmans' theorem |
     `-----------------------------------------------'


     DFT KT symmetry 1 ( A1 ) in point group C2v -- 11 principal poles with pole strength 1

   ============  ============  ============  ============  ============
     101.579806     19.204808     10.394463      9.498756      7.261506
    2764.127127    522.589397    282.847739    258.474308    197.595642
   ============  ============  ============  ============  ============

   ============  ============  ============  ============  ============
       7.250585      1.131701      0.906712      0.598400      0.501885
     197.298452     30.795156     24.672880     16.283295     13.656983
   ============  ============  ============  ============  ============

   ============
       0.371000
      10.095437
   ============

     DFT KT symmetry 2 ( B1 ) in point group C2v -- 3 principal poles with pole strength 1

   ============  ============  ============
       7.252038      0.482083      0.354787
     197.337990     13.118137      9.654234
   ============  ============  ============

     DFT KT symmetry 3 ( B2 ) in point group C2v -- 8 principal poles with pole strength 1

   ============  ============  ============  ============  ============
     101.579806      9.498847      7.261508      7.250586      0.858482
    2764.127131    258.476786    197.595671    197.298475     23.360489
   ============  ============  ============  ============  ============

   ============  ============  ============
       0.519386      0.345372      0.320900
      14.133206      9.398052      8.732121
   ============  ============  ============

     DFT KT symmetry 4 ( A2 ) in point group C2v -- 2 principal poles with pole strength 1

   ============  ============
       7.252039      0.350894
     197.338016      9.548305
   ============  ============

@ Summary of DFT KT ionization potentials [eV]:

@ Symmetry 1 (A1 ) :  2764.127     522.589     282.848     258.474     197.596
@                      197.298      30.795      24.673      16.283      13.657
@                       10.095

@ Symmetry 2 (B1 ) :   197.338      13.118       9.654

@ Symmetry 3 (B2 ) :  2764.127     258.477     197.596     197.298      23.360
@                       14.133       9.398       8.732

@ Symmetry 4 (A2 ) :   197.338       9.548

  === End of DFT KT output ===
--------------------------------------------------------------------------------


 CPU and wall time for SCF :       5.758       5.763


                       .-----------------------------------.
                       | --- Final results from SIRIUS --- |
                       `-----------------------------------'


@    Spin multiplicity:           1
@    Spatial symmetry:            1 ( irrep  A1  in C2v )
@    Total charge of molecule:    0

@    Final DFT energy:          -1033.585507980901                 
@    Nuclear repulsion:           189.677672774154
@    Electronic energy:         -1223.263180755055

@    Final gradient norm:           0.000005155234

 
     Date and time (Linux)  : Thu May  7 17:03:55 2026
     Host name              : debian                                  

File label for MO orbitals:   7May26   FOCKDIIS

 (Only coefficients > 0.0100 are printed.)

 Molecular orbitals for symmetry species 1  (A1 )
 ------------------------------------------------

    Orbital         2        3        4        5        6        7        8
   1 O   :1s     1.0036   0.0000  -0.0002   0.0000   0.0000  -0.0081   0.0007
   2 O   :1s     0.0184   0.0009  -0.0006   0.0002   0.0001   0.7781  -0.2549
   3 O   :1s    -0.0224  -0.0058  -0.0002  -0.0001   0.0001  -0.1162   0.0276
   4 O   :2pz    0.0029  -0.0011  -0.0003   0.0001   0.0001   0.2495  -0.0293
   5 O   :2pz   -0.0048  -0.0024  -0.0003  -0.0003  -0.0000  -0.0853   0.0168
   6 O   :3d0    0.0001  -0.0006  -0.0000  -0.0000   0.0000   0.0159  -0.0022
   8 C   :1s     0.0004   1.0046  -0.0009  -0.0003   0.0000  -0.0102  -0.0009
   9 C   :1s     0.0007   0.0271  -0.0038  -0.0011   0.0001   0.5063   0.2849
  10 C   :1s     0.0048  -0.0226   0.0125   0.0021  -0.0004  -0.1823  -0.0651
  11 C   :2pz    0.0003  -0.0018  -0.0007  -0.0000   0.0000  -0.2916   0.2772
  12 C   :2pz   -0.0053  -0.0048   0.0034   0.0012   0.0002   0.1368  -0.0799
  13 C   :3d0   -0.0008   0.0017   0.0004  -0.0000  -0.0002   0.0339  -0.0089
  14 C   :3d2+  -0.0002   0.0002   0.0004  -0.0007  -0.0000  -0.0033  -0.0161
  16 Cl2 :1s    -0.0001  -0.0007   0.7140   0.0044  -0.0000   0.0005   0.0044
  17 Cl2 :1s    -0.0002  -0.0017   0.0240   0.0002  -0.0002   0.0866   0.6113
  18 Cl2 :1s     0.0006   0.0048  -0.0236  -0.0012   0.0002  -0.0233  -0.0650
  19 Cl2 :2py    0.0000  -0.0000  -0.0036   0.5952  -0.3829   0.0011   0.0028
  20 Cl2 :2pz    0.0000  -0.0000  -0.0024   0.3829   0.5951   0.0012   0.0012
  21 Cl2 :2py    0.0001   0.0001  -0.0006   0.0071  -0.0038  -0.0311  -0.1132
  22 Cl2 :2pz    0.0001  -0.0000  -0.0008   0.0046   0.0059  -0.0298  -0.0519
  23 Cl2 :2py   -0.0007  -0.0019   0.0031  -0.0051   0.0030   0.0157   0.0398
  24 Cl2 :2pz    0.0006  -0.0003   0.0023  -0.0036  -0.0049   0.0089   0.0188
  25 Cl2 :3d1-  -0.0003  -0.0005  -0.0003  -0.0004  -0.0001   0.0102   0.0163
  27 Cl2 :3d2+  -0.0002   0.0003   0.0002   0.0004  -0.0001  -0.0042  -0.0161

    Orbital         9       10       11       12       13       14       15
   1 O   :1s    -0.0013   0.0023  -0.0026  -0.0026  -0.0480   0.0170  -0.0125
   2 O   :1s    -0.3416  -0.3459   0.0075  -0.0824   0.2505   0.1350  -0.0038
   3 O   :1s    -0.0265  -0.1013   0.0233  -0.0472   1.5298   0.0539   0.1677
   4 O   :2pz    0.2739   0.6858   0.1844  -0.1778   0.2277  -0.0216   0.0498
   5 O   :2pz   -0.0217  -0.0593  -0.0095  -0.0463   0.4442   0.1092   0.2105
   6 O   :3d0    0.0093   0.0236   0.0055  -0.0050   0.0206   0.0082  -0.0115
   8 C   :1s     0.0142   0.0064  -0.0011   0.0044   0.0457   0.1917   0.2374
   9 C   :1s     0.6665   0.1200  -0.0089   0.6364   0.0788   0.8126   1.0613
  10 C   :1s    -0.1335  -0.1344  -0.0292   0.8316  -1.0779  -0.5858  -2.4985
  11 C   :2pz    0.1714  -0.5435  -0.1092   0.4941   0.2749   0.2081   0.5824
  12 C   :2pz    0.0311   0.2400   0.1070   0.1305   1.7698  -0.0182  -0.9617
  13 C   :3d0   -0.0028  -0.0047   0.0384  -0.0010   0.0479  -0.0492   0.0549
  14 C   :3d2+  -0.0092   0.0024   0.0219   0.0202  -0.0078  -0.2405   0.0588
  15 Cl2 :1s     0.0013  -0.0001  -0.0007   0.0045   0.0115   0.0493   0.0352
  16 Cl2 :1s     0.0088  -0.0001  -0.0052   0.0256   0.0800   0.3522   0.2607
  17 Cl2 :1s    -0.3389   0.1105  -0.0195  -0.1728   0.1886   0.9622   0.8729
  18 Cl2 :1s    -0.0981   0.0202   0.0064  -0.3466  -0.5265  -1.0932  -0.3775
  19 Cl2 :2py    0.0044  -0.0025   0.0017   0.0013  -0.0037  -0.0805   0.0509
  20 Cl2 :2pz    0.0027  -0.0004  -0.0018   0.0020  -0.0035  -0.0193   0.0755
  21 Cl2 :2py   -0.3140   0.2791  -0.2679   0.4696   0.0237  -0.7764   0.5214
  22 Cl2 :2pz   -0.1743   0.0283   0.6227   0.2750  -0.1756  -0.1081   0.7492
  23 Cl2 :2py    0.0805  -0.0284   0.0011   0.3048   0.3638   0.9150  -1.0187
  24 Cl2 :2pz    0.0335  -0.0110  -0.0141   0.1496  -0.0634   0.2623  -1.0590
  25 Cl2 :3d1-   0.0240  -0.0050  -0.0132   0.0627  -0.0479   0.2615   0.0527
  26 Cl2 :3d0   -0.0038   0.0140  -0.0098  -0.0232  -0.1250   0.1410  -0.0031
  27 Cl2 :3d2+  -0.0197   0.0181  -0.0055  -0.0514  -0.0850  -0.0393  -0.1009

    Orbital        16       17       18       19       20       21
   1 O   :1s     0.0166   0.0267   0.0321  -0.0325   0.0231  -0.0110
   2 O   :1s     0.1046   0.1800   0.0362  -0.4525   0.2518  -0.0652
   3 O   :1s     0.0397  -0.9752  -0.8722  -0.5878   0.2018  -0.0910
   4 O   :2pz   -0.0753   0.6553   0.4504   0.1203  -0.4593  -0.3893
   5 O   :2pz    0.2169  -0.3605  -0.7996  -1.1115   1.0580   0.6957
   6 O   :3d0    0.0203  -0.0963  -0.0317   0.0261  -0.0341  -0.0258
   7 O   :3d2+   0.0016  -0.0013   0.0143   0.0065   0.0171   0.0333
   8 C   :1s     0.1929  -0.1457  -0.1172   0.1145  -0.6745   0.0608
   9 C   :1s     0.8792  -0.9544  -0.6397   0.5408  -2.9801   0.5777
  10 C   :1s    -1.5810   0.9166   1.8178   1.0288   3.4109  -0.0481
  11 C   :2pz    0.1605   1.0559  -0.0403  -1.0158  -0.0577   0.6583
  12 C   :2pz   -0.5437  -1.9793  -0.4820   0.3294   0.9039  -0.8677
  13 C   :3d0   -0.1235   0.3885   0.1693   0.1562  -0.2008  -0.1033
  14 C   :3d2+  -0.0861  -0.0356   0.0798  -0.0140   0.0957   0.2046
  15 Cl2 :1s     0.0039  -0.0278   0.0534   0.0458   0.0585   0.0547
  16 Cl2 :1s     0.0317  -0.1973   0.3804   0.3257   0.4117   0.3928
  17 Cl2 :1s     0.1342  -0.5173   1.0052   0.8575   1.0232   1.0431
  18 Cl2 :1s     0.1459   0.8864  -1.2703  -1.1592  -1.7184  -1.1205
  19 Cl2 :2py    0.0731  -0.0138   0.0134  -0.0042   0.0167  -0.0524
  20 Cl2 :2pz   -0.0911  -0.0269  -0.0367  -0.0131   0.0025  -0.0579
  21 Cl2 :2py    0.7373  -0.0986   0.1291  -0.0518   0.1022  -0.3890
  22 Cl2 :2pz   -0.8408  -0.2346  -0.3373  -0.1280   0.0011  -0.4159
  23 Cl2 :2py   -1.0488  -0.1267  -0.0481   0.1998   0.2764   0.4715
  24 Cl2 :2pz    0.8981   0.3223   0.5395   0.2695   0.1721   0.6817
  25 Cl2 :3d1-   0.0753  -0.0819   0.2598  -0.1852   0.1308  -0.4789
  26 Cl2 :3d0    0.1752   0.0577  -0.4265  -0.0528   0.0478  -0.1762
  27 Cl2 :3d2+  -0.0505  -0.2377   0.2208  -0.4476  -0.2455   0.1083

 Molecular orbitals for symmetry species 2  (B1 )
 ------------------------------------------------

    Orbital         1        2        3        4        5        6        7
   1 O   :2px    0.0000   0.5878  -0.5091  -0.6021   0.0690   0.0053   0.2248
   2 O   :2px   -0.0001  -0.0488  -0.0030  -0.1513   0.0657  -0.0541  -0.0953
   3 O   :3d1+  -0.0000   0.0243  -0.0116   0.0081   0.0312  -0.0081   0.0033
   4 C   :2px   -0.0001   0.6026  -0.0903   0.8564   1.3478  -0.3915   0.0658
   5 C   :2px    0.0004  -0.0784   0.0251   0.1511  -1.7184   0.7838  -0.2337
   6 C   :3d1+  -0.0001  -0.0210   0.0495   0.0451  -0.0263   0.0876   0.1719
   7 Cl2 :2px    0.7076  -0.0021  -0.0018  -0.0019   0.0405   0.1211  -0.0030
   8 Cl2 :2px    0.0071   0.2763   0.5972  -0.2804   0.4555   1.1254  -0.0292
   9 Cl2 :2px   -0.0059  -0.0325   0.0008  -0.0840  -0.2573  -1.4383   0.0609
  10 Cl2 :3d2-  -0.0002  -0.0233  -0.0115  -0.0618   0.0976  -0.1644  -0.5098
  11 Cl2 :3d1+  -0.0001  -0.0160  -0.0020  -0.0382   0.0530  -0.1716   0.4530

    Orbital         8        9       10       11
   1 O   :2px   -0.5801   1.1467   0.5341  -0.0114
   2 O   :2px    0.4009  -1.9846  -0.2256   0.4343
   3 O   :3d1+   0.0021   0.0511  -0.1010   1.1095
   4 C   :2px   -0.2530  -0.1988  -0.0506  -0.3464
   5 C   :2px    0.8126   1.0957   0.2507  -0.0552
   6 C   :3d1+  -0.1625  -0.3959   0.9759   0.6219
   7 Cl2 :2px    0.0455   0.0207   0.0104  -0.0027
   8 Cl2 :2px    0.3863   0.1603   0.0250  -0.0319
   9 Cl2 :2px   -0.6144  -0.3849  -0.1996   0.0422
  10 Cl2 :3d2-   0.3356   0.1386   0.3367   0.0477
  11 Cl2 :3d1+   0.5014   0.1231   0.1141   0.0002

 Molecular orbitals for symmetry species 3  (B2 )
 ------------------------------------------------

    Orbital         1        2        3        4        5        6        7
   1 O   :2py    0.0000   0.0002   0.0003  -0.0000   0.0568   0.4323   0.5652
   2 O   :2py   -0.0001  -0.0029  -0.0005   0.0002  -0.0097  -0.0414  -0.0086
   3 O   :3d1-  -0.0000  -0.0005   0.0001   0.0000   0.0058   0.0185   0.0089
   4 C   :2py   -0.0000  -0.0007   0.0001  -0.0001   0.2490   0.5841  -0.0969
   5 C   :2py    0.0002   0.0109   0.0011   0.0001  -0.0846  -0.1387   0.1115
   6 C   :3d1-   0.0000  -0.0012   0.0008   0.0001   0.0207  -0.0108  -0.0682
   7 Cl2 :1s     0.7071   0.0012   0.0000  -0.0000   0.0016   0.0007  -0.0007
   8 Cl2 :1s    -0.0001   0.7157   0.0042  -0.0001   0.0039   0.0039  -0.0049
   9 Cl2 :1s    -0.0005   0.0278  -0.0003  -0.0002   0.6966  -0.2061  -0.0300
  10 Cl2 :1s     0.0003  -0.0302  -0.0004   0.0003  -0.0447  -0.0647  -0.0115
  11 Cl2 :2py   -0.0000  -0.0038   0.5952   0.3829   0.0009   0.0026  -0.0005
  12 Cl2 :2pz   -0.0000  -0.0024   0.3829  -0.5951   0.0010   0.0028   0.0008
  13 Cl2 :2py    0.0000  -0.0018   0.0073   0.0039  -0.0597  -0.2871   0.5986
  14 Cl2 :2pz    0.0000  -0.0008   0.0046  -0.0059  -0.0571  -0.3300  -0.0728
  15 Cl2 :2py    0.0001   0.0054  -0.0057  -0.0033   0.0185   0.0449   0.0005
  16 Cl2 :2pz    0.0001   0.0040  -0.0034   0.0050   0.0177   0.0510   0.0003
  17 Cl2 :3d1-  -0.0000  -0.0003  -0.0005   0.0001   0.0154   0.0293  -0.0109
  18 Cl2 :3d0   -0.0000  -0.0003  -0.0000   0.0001   0.0014   0.0104   0.0081
  19 Cl2 :3d2+   0.0000   0.0001   0.0003   0.0001  -0.0077  -0.0134   0.0073

    Orbital         8        9       10       11       12       13       14
   1 O   :2py    0.5531  -0.4044   0.1908  -0.2840   0.2321  -0.1486  -0.2464
   2 O   :2py   -0.0003  -0.2076   0.2468  -0.0160  -0.2105   0.1641   0.2684
   3 O   :3d1-   0.0125   0.0149   0.0165   0.0013  -0.0147  -0.0124  -0.0257
   4 C   :2py    0.0383   1.0510   0.9109  -0.0877  -0.1017  -0.2501  -0.6948
   5 C   :2py    0.0272   0.4304  -2.5529   0.3034   0.4300   0.4959   1.2404
   6 C   :3d1-  -0.0300   0.0022  -0.0278  -0.2213   0.0027   0.0541   0.2078
   7 Cl2 :1s     0.0000   0.0052   0.0178  -0.0027   0.0181   0.0514   0.0697
   8 Cl2 :1s     0.0002   0.0292   0.1381  -0.0169   0.1286   0.3662   0.4941
   9 Cl2 :1s    -0.0053  -0.1680   0.5772   0.0178   0.3422   0.9709   1.2703
  10 Cl2 :1s    -0.0131  -0.4451   0.3205   0.0092  -0.5212  -1.2711  -1.8631
  11 Cl2 :2py   -0.0003  -0.0026   0.0387   0.0986   0.0438  -0.0061  -0.0011
  12 Cl2 :2pz    0.0002  -0.0057   0.0171   0.0453  -0.1199   0.0007   0.0329
  13 Cl2 :2py   -0.2027   0.2262   0.4679   0.8515   0.3843  -0.0504  -0.0191
  14 Cl2 :2pz    0.5995   0.1858   0.1704   0.4420  -1.1190   0.0099   0.2874
  15 Cl2 :2py    0.0086   0.3319  -0.9103  -1.1581  -0.4167   0.1723   0.2668
  16 Cl2 :2pz   -0.0021   0.3633  -0.7381  -0.4714   1.4301   0.0969  -0.1056
  17 Cl2 :3d1-  -0.0012   0.1130   0.1103  -0.0400   0.1581  -0.1040   0.4863
  18 Cl2 :3d0   -0.0009   0.0330  -0.1083   0.1974   0.1227   0.4792  -0.1191
  19 Cl2 :3d2+  -0.0009  -0.0531  -0.1520   0.2420   0.1164  -0.4177   0.0542

    Orbital        15       16       17       18
   1 O   :2py    0.5365   1.0088   0.2724   0.7047
   2 O   :2py   -0.4932  -1.7543  -1.2253  -0.9827
   3 O   :3d1-   0.0050   0.0281   0.1040  -0.1364
   4 C   :2py    0.3805  -0.7255   0.0351   0.2282
   5 C   :2py   -1.2501   1.5089   2.6820   2.2007
   6 C   :3d1-  -0.1264  -0.2409  -0.3641   1.1512
   7 Cl2 :1s    -0.0038  -0.0338   0.1457   0.0794
   8 Cl2 :1s    -0.0213  -0.2432   1.0323   0.5432
   9 Cl2 :1s     0.0153  -0.6399   2.5504   1.1119
  10 Cl2 :1s     0.4341   0.3993  -4.1297  -2.6103
  11 Cl2 :2py   -0.0808   0.0533  -0.0488   0.0439
  12 Cl2 :2pz    0.0307   0.0305  -0.0265   0.0315
  13 Cl2 :2py   -0.6588   0.3388  -0.3693   0.4391
  14 Cl2 :2pz    0.2459   0.2054  -0.1627   0.2996
  15 Cl2 :2py    0.6570  -0.4754   1.1344   0.4317
  16 Cl2 :2pz   -0.6440  -0.1106   0.9726   0.4719
  17 Cl2 :3d1-   0.2388   0.2073  -0.3008  -0.4614
  18 Cl2 :3d0    0.3978  -0.0863  -0.2359   0.0177
  19 Cl2 :3d2+   0.3077  -0.3376   0.0977   0.3084

 Molecular orbitals for symmetry species 4  (A2 )
 ------------------------------------------------

    Orbital         1        2        3        4        5        6        7
   1 O   :3d2-   0.0000   0.0007   0.0026  -0.0160   0.0017   0.1042   1.0025
   2 C   :3d2-  -0.0001   0.0326  -0.1748  -0.3276   0.0043   0.9760  -0.2412
   3 Cl2 :2px    0.7076  -0.0016  -0.1182   0.0662  -0.0252   0.0135   0.0004
   4 Cl2 :2px    0.0072   0.7151  -1.0851   0.6630  -0.2315   0.0363   0.0198
   5 Cl2 :2px   -0.0059  -0.0033   1.3228  -0.7096   0.2784  -0.2174   0.0121
   6 Cl2 :3d2-  -0.0002  -0.0104   0.2823   0.3214  -0.4895   0.3150  -0.0459
   7 Cl2 :3d1+  -0.0001  -0.0093   0.1407   0.4040   0.4976   0.2902  -0.0407

  Total CPU  time used in SIRIUS :   5.77 seconds
  Total wall time used in SIRIUS :   5.77 seconds

 
     Date and time (Linux)  : Thu May  7 17:03:55 2026
     Host name              : debian                                  


                     .---------------------------------------.
                     | End of Wave Function Section (SIRIUS) |
                     `---------------------------------------'

  Total CPU  time used in DALTON:   5.85 seconds
  Total wall time used in DALTON:   5.88 seconds

 
     Date and time (Linux)  : Thu May  7 17:03:55 2026
     Host name              : debian                                  
