

     ************************************************************************
     *************** Dalton - An Electronic Structure Program ***************
     ************************************************************************

    This is output from DALTON release Dalton2025.0-dev (2025)
         ( Web site: http://daltonprogram.org )

   ----------------------------------------------------------------------------

    NOTE:
     
    Dalton is an experimental code for the evaluation of molecular
    properties using (MC)SCF, DFT, CI, and CC wave functions.
    The authors accept no responsibility for the performance of
    the code or for the correctness of the results.
     
    The code (in whole or part) is provided under a licence and
    is not to be reproduced for further distribution without
    the written permission of the authors or their representatives.
     
    See the home page "http://daltonprogram.org" for further information.
     
    If results obtained with this code are published,
    the appropriate citations would be both of:
     
       K. Aidas, C. Angeli, K. L. Bak, V. Bakken,
       R. Bast, L. Boman, O. Christiansen, R. Cimiraglia,
       S. Coriani, P. Dahle, E. K. Dalskov, U. Ekstroem,
       T. Enevoldsen, J. J. Eriksen, P. Ettenhuber, B. Fernandez,
       L. Ferrighi, H. Fliegl, L. Frediani, K. Hald, A. Halkier,
       C. Haettig, H. Heiberg, T. Helgaker, A. C. Hennum,
       H. Hettema, E. Hjertenaes, S. Hoest, I.-M. Hoeyvik,
       M. F. Iozzi, B. Jansik, H. J. Aa. Jensen, D. Jonsson,
       P. Joergensen, J. Kauczor, S. Kirpekar,
       T. Kjaergaard, W. Klopper, S. Knecht, R. Kobayashi, H. Koch,
       J. Kongsted, A. Krapp, K. Kristensen, A. Ligabue,
       O. B. Lutnaes, J. I. Melo, K. V. Mikkelsen, R. H. Myhre,
       C. Neiss, C. B. Nielsen, P. Norman, J. Olsen,
       J. M. H. Olsen, A. Osted, M. J. Packer, F. Pawlowski,
       T. B. Pedersen, P. F. Provasi, S. Reine, Z. Rinkevicius,
       T. A. Ruden, K. Ruud, V. Rybkin, P. Salek, C. C. M. Samson,
       A. Sanchez de Meras, T. Saue, S. P. A. Sauer,
       B. Schimmelpfennig, K. Sneskov, A. H. Steindal,
       K. O. Sylvester-Hvid, P. R. Taylor, A. M. Teale,
       E. I. Tellgren, D. P. Tew, A. J. Thorvaldsen, L. Thoegersen,
       O. Vahtras, M. A. Watson, D. J. D. Wilson, M. Ziolkowski
       and H. Agren,
       "The Dalton quantum chemistry program system",
       WIREs Comput. Mol. Sci. 2014, 4:269-284 (doi: 10.1002/wcms.1172)
     
    and
     
       Dalton, a molecular electronic structure program,
       Release Dalton2025.0-dev (2025), see http://daltonprogram.org
   ----------------------------------------------------------------------------

    Authors in alphabetical order (Major contribution(s) in parenthesis):

  Kestutis Aidas,              Vilnius University,        Lithuania   (QM/MM)
  Celestino Angeli,            University of Ferrara,     Italy       (NEVPT2)
  Juan J. Aucar,               Northeast National UniversiArgentina   (LRESC, Relativistic Effects on NMR Shieldings and EFG)
  Keld L. Bak,                 UNI-C,                     Denmark     (AOSOPPA, non-adiabatic coupling, magnetic properties)
  Vebjoern Bakken,             University of Oslo,        Norway      (DALTON; geometry optimizer, symmetry detection)
  Radovan Bast,                UiT The Arctic U. of NorwayNorway      (DALTON installation and execution frameworks)
  Pablo Baudin,                University of Valencia,    Spain       (Cholesky excitation energies)
  Linus Boman,                 NTNU,                      Norway      (Cholesky decomposition and subsystems)
  Bruno N. Cabral Tenorio,     Technical Univ. of Denmark,Denmark     (Lanczos-based CC methods)
  Ove Christiansen,            Aarhus University,         Denmark     (CC module)
  Renzo Cimiraglia,            University of Ferrara,     Italy       (NEVPT2)
  Sonia Coriani,               Technical Univ. of Denmark,Denmark     (CC and RESPONS modules)
  Janusz Cukras,               University of Warsaw,      Poland      (MChD in RESPONS)
  Paal Dahle,                  University of Oslo,        Norway      (Parallelization)
  Erik K. Dalskov,             UNI-C,                     Denmark     (SOPPA)
  Thomas Enevoldsen,           Univ. of Southern Denmark, Denmark     (SOPPA)
  Janus J. Eriksen,            Aarhus University,         Denmark     (Polarizable embedding, TDA)
  Rasmus Faber,                Technical Univ. of Denmark,Denmark     (Vib.avg. NMR w. SOPPA, parallel AO-SOPPA, CVS-CC and EOMCC)
  Tobias Fahleson,             KTH Stockholm,             Sweden      (Damped cubic response)
  Berta Fernandez,             U. of Santiago de CompostelSpain       (Doublet spin, ESR in RESPONS)
  Lara Ferrighi,               Aarhus University,         Denmark     (PCM Cubic response)
  Heike Fliegl,                University of Oslo,        Norway      (CCSD(R12))
  Luca Frediani,               UiT The Arctic U. of NorwayNorway      (PCM)
  Emmanuel Fromager,           Univ. Strasbourg,          France      (MC-srDFT)
  Bin Gao,                     UiT The Arctic U. of NorwayNorway      (Gen1Int library)
  Andre S. P. Gomes,           CNRS/Universite de Lille,  France      (Frozen density embedding)
  Christof Haettig,            Ruhr-University Bochum,    Germany     (CC module)
  Kasper Hald,                 Aarhus University,         Denmark     (CC module)
  Asger Halkier,               Aarhus University,         Denmark     (CC module)
  Frederik Beyer Hansen,       University of Copenhagen,  Denmark     (Parallel AO-SOPPA)
  Erik D. Hedegaard,           Univ. of Southern Denmark, Denmark     (Polarizable embedding, QM/MM, and MC-srDFT)
  Hanne Heiberg,               University of Oslo,        Norway      (Geometry analysis, selected one-electron integrals)
  Trygve Helgaker,             University of Oslo,        Norway      (DALTON; ABACUS, ERI, DFT modules, London, and much more)
  Alf Christian Hennum,        University of Oslo,        Norway      (Parity violation)
  Hinne Hettema,               University of Auckland,    New Zealand (Quadratic response in RESPONS; SIRIUS supersymmetry)
  Andreas E. Hillers-Bendtsen, University of Copenhagen,  Denmark     (MP3)
  Eirik Hjertenaes,            NTNU,                      Norway      (Cholesky decomposition)
  Nicolai Machholdt Hoeyer,    Aarhus University,         Denmark     (MP3)
  Pi A. B. Haase,              University of Copenhagen,  Denmark     (Triplet AO-SOPPA)
  Maria Francesca Iozzi,       University of Oslo,        Norway      (RPA)
  Christoph Jacob,             TU Braunschweig            Germany     (Frozen density embedding)
  Brano Jansik,                Technical Univ. of Ostrava Czech Rep.  (DFT cubic response)
  Hans Joergen Aa. Jensen,     Univ. of Southern Denmark, Denmark     (DALTON; SIRIUS, RESPONS, ABACUS, MC-srDFT, and much more)
  Dan Jonsson,                 UiT The Arctic U. of NorwayNorway      (Cubic response in RESPONS module)
  Poul Joergensen,             Aarhus University,         Denmark     (RESPONS, ABACUS, and CC modules)
  Maciej Kaminski,             University of Warsaw,      Poland      (CPPh in RESPONS)
  Joanna Kauczor,              Linkoeping University,     Sweden      (Complex polarization propagator (CPP) module)
  Sheela Kirpekar,             Univ. of Southern Denmark, Denmark     (Mass-velocity & Darwin integrals)
  Frederik Oersted Kjeldal,    Technical Univ. of Denmark,Denmark     (MP3)
  Erik Kjellgren,              Univ. of Southern Denmark, Denmark     (MC-srDFT)
  Wim Klopper,                 KIT Karlsruhe,             Germany     (R12 code in CC, SIRIUS, and ABACUS modules)
  Stefan Knecht,               ETH Zurich,                Switzerland (Parallel CI and MCSCF, MC-srDFT)
  Rika Kobayashi,              Australian National Univ., Australia   (DIIS in CC, London in MCSCF)
  Henrik Koch,                 NTNU,                      Norway      (CC module, Cholesky decomposition)
  Jacob Kongsted,              Univ. of Southern Denmark, Denmark     (Polarizable embedding, polarizable density embedding, QM/MM)
  Andrea Ligabue,              University of Modena,      Italy       (CTOCD, AOSOPPA)
  Nanna H. List,               Univ. of Southern Denmark, Denmark     (Polarizable embedding)
  Ola B. Lutnaes,              University of Oslo,        Norway      (DFT Hessian)
  Juan I. Melo,                University of Buenos Aires,Argentina   (LRESC, Relativistic Effects on NMR Shieldings)
  Kurt V. Mikkelsen,           University of Copenhagen,  Denmark     (MC-SCRF, QM/MM, and MP3)
  Rolf H. Myhre,               NTNU,                      Norway      (Subsystems and CC3)
  Christian Neiss,             Univ. Erlangen-Nuernberg,  Germany     (CCSD(R12))
  Christian B. Nielsen,        University of Copenhagen,  Denmark     (QM/MM)
  Patrick Norman,              KTH Stockholm,             Sweden      (Cubic response and complex frequency response in RESPONS)
  Jeppe Olsen,                 Aarhus University,         Denmark     (SIRIUS CI/density modules)
  Jogvan Magnus H. Olsen,      Aarhus University,         Denmark     (Polarizable embedding and polarizable density embedding)
  Anders Osted,                Copenhagen University,     Denmark     (QM/MM)
  Martin J. Packer,            University of Sheffield,   UK          (SOPPA)
  Filip Pawlowski,             Kazimierz Wielki UniversityPoland      (CC3)
  Morten N. Pedersen,          Univ. of Southern Denmark, Denmark     (Polarizable embedding)
  Thomas B. Pedersen,          University of Oslo,        Norway      (Cholesky decomposition)
  Patricio F. Provasi,         University of Northeastern,Argentina   (Analysis of coupling constants in localized orbitals)
  Peter Reinholdt,             Univ. of Southern Denmark, Denmark     (Polarizable embedding and polarizable density embedding)
  Zilvinas Rinkevicius,        KTH Stockholm,             Sweden      (open-shell DFT, ESR)
  Elias Rudberg,               KTH Stockholm,             Sweden      (DFT grid and basis info)
  Torgeir A. Ruden,            University of Oslo,        Norway      (Numerical derivatives in ABACUS)
  Kenneth Ruud,                UiT The Arctic U. of NorwayNorway      (DALTON; ABACUS magnetic properties and much more)
  Pawel Salek,                 KTH Stockholm,             Sweden      (DALTON; DFT code)
  Claire C. M. Samson,         University of Karlsruhe    Germany     (Boys localization, r12 integrals in ERI)
  Alfredo Sanchez de Meras,    University of Valencia,    Spain       (CC module, Cholesky decomposition)
  Trond Saue,                  Paul Sabatier University,  France      (direct Fock matrix construction)
  Stephan P. A. Sauer,         University of Copenhagen,  Denmark     (SOPPA(CCSD), SOPPA prop., AOSOPPA, vibrational g-factors)
  Bernd Schimmelpfennig,       Forschungszentrum KarlsruheGermany     (AMFI module)
  Anna K. Schnack-Petersen,    University of Copenhagen,  Denmark     (RPA(D) and HRPA(D) properties in AOSOPPA)
  Kristian Sneskov,            Aarhus University,         Denmark     (Polarizable embedding, QM/MM)
  Arnfinn H. Steindal,         UiT The Arctic U. of NorwayNorway      (parallel QM/MM, polarizable embedding)
  Casper Steinmann,            Aalborg University,        Denmark     (QFIT, polarizable embedding)
  K. O. Sylvester-Hvid,        University of Copenhagen,  Denmark     (MC-SCRF)
  Peter R. Taylor,             VLSCI/Univ. of Melbourne,  Australia   (Symmetry handling ABACUS, integral transformation)
  Andrew M. Teale,             University of Nottingham,  England     (DFT-AC, DFT-D)
  David P. Tew,                University of Bristol,     England     (CCSD(R12))
  Julien Toulouse,             Sorbonne Univ.,            France      (MC-srDFT)
  Olav Vahtras,                KTH Stockholm,             Sweden      (Triplet response, spin-orbit, ESR, TDDFT, open-shell DFT)
  Lucas Visscher,              Vrije Universiteit AmsterdaNetherlands (Frozen density embedding)
  David J. Wilson,             La Trobe University,       Australia   (DFT Hessian and DFT magnetizabilities)
  Luna Zamok,                  University of Copenhagen,  Denmark     (Block Lanczos RPA solver in SOPPA module)
  Hans Agren,                  KTH Stockholm,             Sweden      (SIRIUS module, RESPONS, MC-SCRF solvation)
 --------------------------------------------------------------------------------

     Date and time (Linux)  : Mon May  4 21:44:42 2026
     Host name              : debian                                  

 * Work memory size             :    64000000 =  488.28 megabytes.

 * Directories for basis set searches:
   1) /home/vdwv/DIPLOM_ITMO/CALCULATIONS_AND_SOFTS/softwares/Dalton_Shenanigans/dalton/dalton/build
   2) /home/vdwv/DIPLOM_ITMO/CALCULATIONS_AND_SOFTS/softwares/Dalton_Shenanigans/dalton/dalton/build/basis


Compilation information
-----------------------

 Who compiled             | vdwv
 Host                     | debian
 System                   | Linux-6.12.73+deb13-amd64
 CMake generator          | Unix Makefiles
 Processor                | x86_64
 64-bit integers          | OFF
 MPI                      | OFF
 Fortran compiler         | /usr/bin/gfortran
 Fortran compiler version | GNU Fortran (Debian 14.2.0-19) 14.2.0
 C compiler               | /usr/bin/gcc
 C compiler version       | gcc (Debian 14.2.0-19) 14.2.0
 C++ compiler             | /usr/bin/g++
 C++ compiler version     | g++ (Debian 14.2.0-19) 14.2.0
 BLAS                     | /opt/intel/oneapi/mkl/2025.3/lib/intel64/libmkl_gf
                          | _lp64.so;/opt/intel/oneapi/mkl/2025.3/lib/intel64/
                          | libmkl_sequential.so;/opt/intel/oneapi/mkl/2025.3/
                          | lib/intel64/libmkl_core.so;/usr/lib/x86_64-linux-g
                          | nu/libpthread.a;/usr/lib/x86_64-linux-gnu/libm.so
 LAPACK                   | /opt/intel/oneapi/mkl/2025.3/lib/intel64/libmkl_la
                          | pack95_lp64.a;/opt/intel/oneapi/mkl/2025.3/lib/int
                          | el64/libmkl_gf_lp64.so
 Static linking           | OFF
 Last Git revision        | 1892235f9264b9be21ec2fefe6e0081d659ab244
 Git branch               | master
 Configuration time       | 2026-05-04 17:50:26.788788

 * Sequential calculation.


   Content of the .dal input file
 ----------------------------------

BASIS
cc-pVTZ
Phosgene CCl2O using the cc-pVTZ basis
Using automatic symmetry detection
AtomTypes=3 Angstrom
Charge=8.0 Atoms=1
O      0.000      0.000      1.642
Charge=6.0 Atoms=1
C      0.000      0.000      0.489
Charge=17.0 Atoms=2
Cl1    0.000      1.444     -0.473
Cl2    0.000     -1.444     -0.473

**DALTON INPUT
.RUN WAVE FUN
**WAVE FUN
.HF
**END OF


       *******************************************************************
       *********** Output from DALTON general input processing ***********
       *******************************************************************

 --------------------------------------------------------------------------------
   Overall default print level:    0
   Print level for DALTON.STAT:    1

    HERMIT 1- and 2-electron integral sections will be executed
    "Old" integral transformation used (limited to max 255 basis functions)
    Wave function sections will be executed (SIRIUS module)
 --------------------------------------------------------------------------------


   ****************************************************************************
   *************** Output of molecule and basis set information ***************
   ****************************************************************************


    The two title cards from your ".mol" input:
    --------------------------------------------------------------------------------
 1: Phosgene CCl2O using the cc-pVTZ basis
 2: Using automatic symmetry detection
    --------------------------------------------------------------------------------

  Coordinates are entered in Angstrom and converted to atomic units.
          - Conversion factor : 1 bohr = 0.52917721080 A

  Atomic type no.    1
  --------------------
  Nuclear charge:   8.00000
  Number of symmetry independent centers:    1
  Number of basis sets to read;    2
  Basis set file used for this atomic type with Z =   8 :
     "/home/vdwv/DIPLOM_ITMO/CALCULATIONS_AND_SOFTS/softwares/Dalton_Shenanigans/dalton/dalton/build/basis/cc-pVTZ"

  Atomic type no.    2
  --------------------
  Nuclear charge:   6.00000
  Number of symmetry independent centers:    1
  Number of basis sets to read;    2
  Basis set file used for this atomic type with Z =   6 :
     "/home/vdwv/DIPLOM_ITMO/CALCULATIONS_AND_SOFTS/softwares/Dalton_Shenanigans/dalton/dalton/build/basis/cc-pVTZ"

  Atomic type no.    3
  --------------------
  Nuclear charge:  17.00000
  Number of symmetry independent centers:    2
  Number of basis sets to read;    2
  Basis set file used for this atomic type with Z =  17 :
     "/home/vdwv/DIPLOM_ITMO/CALCULATIONS_AND_SOFTS/softwares/Dalton_Shenanigans/dalton/dalton/build/basis/cc-pVTZ"


                      SYMADD: Addition of symmetry requested
                      --------------------------------------

 Symmetry test threshold:  5.00E-06

@  The molecule has been centered at center of mass and rotated
@  so the principal axes of inertia are along coordinate axes.

 Symmetry class found: C(2v)          

 Symmetry Independent Centres             
 ----------------------------
Cl2   17 :      0.00000000     2.72876452     0.87553060  Isotope  1
O      8 :      0.00000000     0.00000000    -3.12124015  Isotope  1
C      6 :      0.00000000     0.00000000    -0.94238593  Isotope  1

 The following symmetry elements were found:   X  Y     


                         SYMGRP: Point group information
                         -------------------------------

@    Full point group is: C(2v)          
@    Represented as:      C2v

@  * The irrep name for each symmetry:    1: A1     2: B1     3: B2     4: A2 

   * The point group was generated by:

      Reflection in the yz-plane
      Reflection in the xz-plane

   * Group multiplication table

        |  E   C2z  Oxz  Oyz
   -----+--------------------
     E  |  E   C2z  Oxz  Oyz
    C2z | C2z   E   Oyz  Oxz
    Oxz | Oxz  Oyz   E   C2z
    Oyz | Oyz  Oxz  C2z   E 

   * Character table

        |  E   C2z  Oxz  Oyz
   -----+--------------------
    A1  |   1    1    1    1
    B1  |   1   -1    1   -1
    B2  |   1   -1   -1    1
    A2  |   1    1   -1   -1

   * Direct product table

        | A1   B1   B2   A2 
   -----+--------------------
    A1  | A1   B1   B2   A2 
    B1  | B1   A1   A2   B2 
    B2  | B2   A2   A1   B1 
    A2  | A2   B2   B1   A1 


                                 Isotopic Masses
                                 ---------------

                           O          15.994915
                           C          12.000000
                           Cl2 _1     34.968853
                           Cl2 _2     34.968853

                       Total mass:    97.932621 amu
                       Natural abundance:  56.643 %

 Center-of-mass coordinates (a.u.):    0.000000    0.000000   -0.000000
 Center-of-mass coordinates (Angs):    0.000000    0.000000   -0.000000


  Atoms and basis sets
  --------------------

  Number of atom types :    3
  Total number of atoms:    4

  Basis set used is "cc-pVTZ" from the basis set library.

  label    atoms   charge   prim   cont     basis
  ----------------------------------------------------------------------
  O           1    8.0000    42    30      [10s5p2d1f|4s3p2d1f]                               
  C           1    6.0000    42    30      [10s5p2d1f|4s3p2d1f]                               
  Cl          2   17.0000    59    34      [15s9p2d1f|5s4p2d1f]                               
  ----------------------------------------------------------------------
  total:      4   48.0000   202   128
  ----------------------------------------------------------------------
  Spherical harmonic basis used.

  Threshold for neglecting AO integrals:  1.00D-12


  Cartesian Coordinates (bohr)
  ----------------------------

  Total number of coordinates:   12
  O       :     1  x   0.0000000000    2  y   0.0000000000    3  z  -3.1212401497
  C       :     4  x   0.0000000000    5  y   0.0000000000    6  z  -0.9423859276
  Cl2 / 1 :     7  x   0.0000000000    8  y   2.7287645245    9  z   0.8755306046
  Cl2 / 2 :    10  x   0.0000000000   11  y  -2.7287645245   12  z   0.8755306046


  Cartesian Coordinates (xyz format; angstrom)
  --------------------------------------------

    4

  O        0.0000000000            0.0000000000           -1.6516891567
  C        0.0000000000            0.0000000000           -0.4986891567
 Cl        0.0000000000            1.4440000000            0.4633108433
 Cl        0.0000000000           -1.4440000000            0.4633108433


  Symmetry Coordinates
  --------------------

  Number of coordinates in each symmetry:     4    3    4    1

  Symmetry  A1  ( 1)

    1   O     z    3
    2   C     z    6
    3   Cl2   y    [  8  -   11 ]/2
    4   Cl2   z    [  9  +   12 ]/2

  Symmetry  B1  ( 2)

    5   O     x    1
    6   C     x    4
    7   Cl2   x    [  7  +   10 ]/2

  Symmetry  B2  ( 3)

    8   O     y    2
    9   C     y    5
   10   Cl2   y    [  8  +   11 ]/2
   11   Cl2   z    [  9  -   12 ]/2

  Symmetry  A2  ( 4)

   12   Cl2   x    [  7  -   10 ]/2


   Interatomic separations (in Angstrom):
   --------------------------------------

            O           C           Cl2 _1      Cl2 _2
            ------      ------      ------      ------
 O     :    0.000000
 C     :    1.153000    0.000000
 Cl2 _1:    2.560930    1.735102    0.000000
 Cl2 _2:    2.560930    1.735102    2.888000    0.000000


  Max    interatomic separation is    2.8880 Angstrom (    5.4575 Bohr)
  between atoms    4 and    3, "Cl2 _2" and "Cl2 _1".

  Min YX interatomic separation is    1.1530 Angstrom (    2.1789 Bohr)


  Bond distances (Angstrom):
  --------------------------

                  atom 1     atom 2       distance
                  ------     ------       --------
  bond distance:  C          O            1.153000
  bond distance:  Cl2 _1     C            1.735102
  bond distance:  Cl2 _2     C            1.735102


  Bond angles (degrees):
  ----------------------

                  atom 1     atom 2     atom 3         angle
                  ------     ------     ------         -----
  bond angle:     O          C          Cl2 _1       123.672
  bond angle:     O          C          Cl2 _2       123.672
  bond angle:     Cl2 _1     C          Cl2 _2       112.656




 Principal moments of inertia (u*A**2) and principal axes
 --------------------------------------------------------

   IA      61.632265          0.000000    1.000000    0.000000
   IB     145.829629          0.000000    0.000000    1.000000
   IC     207.461894          1.000000    0.000000    0.000000


 Rotational constants
 --------------------

@    The molecule is planar.

               A                   B                   C

           8199.9097           3465.5441           2436.0088 MHz
            0.273520            0.115598            0.081257 cm-1


@  Nuclear repulsion energy :  193.405553183712 Hartree


  Symmetry Orbitals
  -----------------

  Number of orbitals in each symmetry:          49   25   37   17


  Symmetry  A1 ( 1)

    1     O        1s         1
    2     O        1s         2
    3     O        1s         3
    4     O        1s         4
    5     O        2pz        7
    6     O        2pz       10
    7     O        2pz       13
    8     O        3d0       16
    9     O        3d2+      18
   10     O        3d0       21
   11     O        3d2+      23
   12     O        4f0       27
   13     O        4f2+      29
   14     C        1s        31
   15     C        1s        32
   16     C        1s        33
   17     C        1s        34
   18     C        2pz       37
   19     C        2pz       40
   20     C        2pz       43
   21     C        3d0       46
   22     C        3d2+      48
   23     C        3d0       51
   24     C        3d2+      53
   25     C        4f0       57
   26     C        4f2+      59
   27     Cl2      1s        61 +   62
   28     Cl2      1s        63 +   64
   29     Cl2      1s        65 +   66
   30     Cl2      1s        67 +   68
   31     Cl2      1s        69 +   70
   32     Cl2      2py       73 -   74
   33     Cl2      2pz       75 +   76
   34     Cl2      2py       79 -   80
   35     Cl2      2pz       81 +   82
   36     Cl2      2py       85 -   86
   37     Cl2      2pz       87 +   88
   38     Cl2      2py       91 -   92
   39     Cl2      2pz       93 +   94
   40     Cl2      3d1-      97 -   98
   41     Cl2      3d0       99 +  100
   42     Cl2      3d2+     103 +  104
   43     Cl2      3d1-     107 -  108
   44     Cl2      3d0      109 +  110
   45     Cl2      3d2+     113 +  114
   46     Cl2      4f3-     115 -  116
   47     Cl2      4f1-     119 -  120
   48     Cl2      4f0      121 +  122
   49     Cl2      4f2+     125 +  126


  Symmetry  B1 ( 2)

   50     O        2px        5
   51     O        2px        8
   52     O        2px       11
   53     O        3d1+      17
   54     O        3d1+      22
   55     O        4f1+      28
   56     O        4f3+      30
   57     C        2px       35
   58     C        2px       38
   59     C        2px       41
   60     C        3d1+      47
   61     C        3d1+      52
   62     C        4f1+      58
   63     C        4f3+      60
   64     Cl2      2px       71 +   72
   65     Cl2      2px       77 +   78
   66     Cl2      2px       83 +   84
   67     Cl2      2px       89 +   90
   68     Cl2      3d2-      95 -   96
   69     Cl2      3d1+     101 +  102
   70     Cl2      3d2-     105 -  106
   71     Cl2      3d1+     111 +  112
   72     Cl2      4f2-     117 -  118
   73     Cl2      4f1+     123 +  124
   74     Cl2      4f3+     127 +  128


  Symmetry  B2 ( 3)

   75     O        2py        6
   76     O        2py        9
   77     O        2py       12
   78     O        3d1-      15
   79     O        3d1-      20
   80     O        4f3-      24
   81     O        4f1-      26
   82     C        2py       36
   83     C        2py       39
   84     C        2py       42
   85     C        3d1-      45
   86     C        3d1-      50
   87     C        4f3-      54
   88     C        4f1-      56
   89     Cl2      1s        61 -   62
   90     Cl2      1s        63 -   64
   91     Cl2      1s        65 -   66
   92     Cl2      1s        67 -   68
   93     Cl2      1s        69 -   70
   94     Cl2      2py       73 +   74
   95     Cl2      2pz       75 -   76
   96     Cl2      2py       79 +   80
   97     Cl2      2pz       81 -   82
   98     Cl2      2py       85 +   86
   99     Cl2      2pz       87 -   88
  100     Cl2      2py       91 +   92
  101     Cl2      2pz       93 -   94
  102     Cl2      3d1-      97 +   98
  103     Cl2      3d0       99 -  100
  104     Cl2      3d2+     103 -  104
  105     Cl2      3d1-     107 +  108
  106     Cl2      3d0      109 -  110
  107     Cl2      3d2+     113 -  114
  108     Cl2      4f3-     115 +  116
  109     Cl2      4f1-     119 +  120
  110     Cl2      4f0      121 -  122
  111     Cl2      4f2+     125 -  126


  Symmetry  A2 ( 4)

  112     O        3d2-      14
  113     O        3d2-      19
  114     O        4f2-      25
  115     C        3d2-      44
  116     C        3d2-      49
  117     C        4f2-      55
  118     Cl2      2px       71 -   72
  119     Cl2      2px       77 -   78
  120     Cl2      2px       83 -   84
  121     Cl2      2px       89 -   90
  122     Cl2      3d2-      95 +   96
  123     Cl2      3d1+     101 -  102
  124     Cl2      3d2-     105 +  106
  125     Cl2      3d1+     111 -  112
  126     Cl2      4f2-     117 +  118
  127     Cl2      4f1+     123 -  124
  128     Cl2      4f3+     127 -  128

  Symmetries of electric field:  B1 (2)  B2 (3)  A1 (1)

  Symmetries of magnetic field:  B2 (3)  B1 (2)  A2 (4)


                     .---------------------------------------.
                     | Starting in Integral Section (HERMIT) |
                     `---------------------------------------'



 ***************************************************************************************
 ****************** Output from **INTEGRALS input processing (HERMIT) ******************
 ***************************************************************************************


 - Using defaults, no **INTEGRALS input found

 Default print level:        1

 Calculation of one- and two-electron Hamiltonian integrals.

 Center of mass  (bohr):      0.000000000000      0.000000000000     -0.000000000000
 Operator center (bohr):      0.000000000000      0.000000000000      0.000000000000
 Gauge origin    (bohr):      0.000000000000      0.000000000000     -0.000000000000
 Dipole origin   (bohr):      0.000000000000      0.000000000000     -0.000000000000

Calculation of 2-electron integrals are postponed until they are needed.


     ************************************************************************
     ************************** Output from HERINT **************************
     ************************************************************************



                      Nuclear contribution to dipole moments
                      --------------------------------------

                 au               Debye          C m (/(10**-30)

      z     -0.85619621        -2.17623355        -7.25913373


  Total CPU  time used in HERMIT:   0.14 seconds
  Total wall time used in HERMIT:   0.14 seconds


                        .----------------------------------.
                        | End of Integral Section (HERMIT) |
                        `----------------------------------'



                   .--------------------------------------------.
                   | Starting in Wave Function Section (SIRIUS) |
                   `--------------------------------------------'


 *** Output from Huckel module :

     Using EWMO model:          F
     Using EHT  model:          T
     Number of Huckel orbitals each symmetry:   16    6   12    4

 Huckel EHT eigenvalues for symmetry :  1
         -104.886990     -20.710676     -11.382527     -10.620180      -8.074108
           -8.072371      -1.529982      -1.228511      -0.754194      -0.596835
           -0.505153      -0.309045      -0.188744      -0.056399      -0.051672
           -0.027325

 Huckel EHT eigenvalues for symmetry :  2
           -8.072510      -0.713472      -0.530822      -0.310305      -0.056359
           -0.048311

 Huckel EHT eigenvalues for symmetry :  3
         -104.887691     -10.620950      -8.073574      -8.072046      -1.144761
           -0.679353      -0.490455      -0.459070      -0.231254      -0.054672
           -0.050600      -0.044997

 Huckel EHT eigenvalues for symmetry :  4
           -8.072185      -0.489926      -0.055204      -0.053431

 **********************************************************************
 *SIRIUS* a direct, restricted step, second order MCSCF program       *
 **********************************************************************

 
     Date and time (Linux)  : Mon May  4 21:44:42 2026
     Host name              : debian                                  

 Title lines from ".mol" input file:
     Phosgene CCl2O using the cc-pVTZ basis
     Using automatic symmetry detection

 Print level on unit LUPRI =   2 is   0
 Print level on unit LUW4  =   2 is   5

@    Restricted, closed shell Hartree-Fock calculation.

 Initial molecular orbitals are obtained according to
 ".MOSTART EHT   " input option

     Wave function specification
     ============================
@    Wave function type        --- HF ---
@    Number of closed shell electrons          48
@    Number of electrons in active shells       0
@    Total charge of the molecule               0

@    Spin multiplicity and 2 M_S                1         0
@    Total number of symmetries                 4 (point group: C2v)
@    Reference state symmetry                   1 (irrep name : A1 )

     Orbital specifications
     ======================
@    Abelian symmetry species          All |    1    2    3    4
@                                          |  A1   B1   B2   A2 
                                       --- |  ---  ---  ---  ---
@    Total number of orbitals          128 |   49   25   37   17
@    Number of basis functions         128 |   49   25   37   17

      ** Automatic occupation of RHF orbitals **

      -- Initial occupation of symmetries is determined from extended Huckel guess.           
      -- Initial occupation of symmetries is :
@    Occupied SCF orbitals              24 |   11    3    8    2

     Maximum number of Fock   iterations      0
     Maximum number of DIIS   iterations     60
     Maximum number of QC-SCF iterations     60
     Threshold for SCF convergence     1.00D-05


 ***********************************************
 ***** DIIS acceleration of SCF iterations *****
 ***********************************************

 C1-DIIS algorithm; max error vectors =    8

 Automatic occupation of symmetries with  48 electrons.

 Iter     Total energy    Error norm  Delta(E)    SCF occupation
 -----------------------------------------------------------------------------

Calculating AOSUPINT

---> (Re)generating AOTWOINT


     ************************************************************************
     ************************** Output from HERINT **************************
     ************************************************************************


***  INFO  GETGAB: GABSO--- not found on AOGABINT. Regenerating.

 Threshold for neglecting two-electron integrals:  1.00D-12
 HERMIT - Number of two-electron integrals written:     8218420 ( 24.1% )
 HERMIT - Megabytes written:                             94.073

  Total CPU  time used in TWOINT:   2.09 seconds
  Total wall time used in TWOINT:   2.09 seconds
  Time used in TWOINT     is       2.19 seconds
  CPU  time used in MAKE_AOTWOINT is   2.19 seconds
  WALL time used in MAKE_AOTWOINT is   2.19 seconds
     (Precalculated AO two-electron integrals are transformed to P-supermatrix elements.
      Threshold for discarding integrals :  1.00D-12 )

  CPU  time used in FORMSUP    is   0.27 seconds
  WALL time used in FORMSUP    is   0.27 seconds
@  1  -1031.04979501       4.19D+00  -1.03D+03    11   3   8   2
      Virial theorem: -V/T =      1.998174
@    MULPOP   O      -0.86; C       0.88; Cl2 _1 -0.01; Cl2 _2 -0.01; 
   1  Level shift: doubly occupied orbital energies shifted by -2.00D-01
 -----------------------------------------------------------------------------
@  2  -1031.65419617       1.72D+00  -6.04D-01    11   3   8   2
      Virial theorem: -V/T =      2.000499
@    MULPOP   O       0.15; C      -0.46; Cl2 _1  0.15; Cl2 _2  0.15; 
   2  Level shift: doubly occupied orbital energies shifted by -1.00D-01
 -----------------------------------------------------------------------------
@  3  -1031.78945657       4.17D-01  -1.35D-01    11   3   8   2
      Virial theorem: -V/T =      1.999668
@    MULPOP   O      -0.29; C       0.38; Cl2 _1 -0.05; Cl2 _2 -0.05; 
   3  Level shift: doubly occupied orbital energies shifted by -2.50D-02
 -----------------------------------------------------------------------------
@  4  -1031.80006188       1.12D-01  -1.06D-02    11   3   8   2
      Virial theorem: -V/T =      2.000168
@    MULPOP   O      -0.20; C       0.34; Cl2 _1 -0.07; Cl2 _2 -0.07; 
   4  Level shift: doubly occupied orbital energies shifted by -1.25D-02
 -----------------------------------------------------------------------------
@  5  -1031.80134879       4.60D-02  -1.29D-03    11   3   8   2
      Virial theorem: -V/T =      2.000058
@    MULPOP   O      -0.22; C       0.35; Cl2 _1 -0.07; Cl2 _2 -0.07; 
 -----------------------------------------------------------------------------
@  6  -1031.80168309       1.65D-02  -3.34D-04    11   3   8   2
      Virial theorem: -V/T =      2.000050
@    MULPOP   O      -0.22; C       0.36; Cl2 _1 -0.07; Cl2 _2 -0.07; 
 -----------------------------------------------------------------------------
@  7  -1031.80174442       5.11D-03  -6.13D-05    11   3   8   2
      Virial theorem: -V/T =      2.000061
@    MULPOP   O      -0.22; C       0.36; Cl2 _1 -0.07; Cl2 _2 -0.07; 
 -----------------------------------------------------------------------------
@  8  -1031.80175017       1.69D-03  -5.75D-06    11   3   8   2
      Virial theorem: -V/T =      2.000053
@    MULPOP   O      -0.22; C       0.36; Cl2 _1 -0.07; Cl2 _2 -0.07; 
 -----------------------------------------------------------------------------
@  9  -1031.80175073       4.74D-04  -5.65D-07    11   3   8   2
      Virial theorem: -V/T =      2.000054
@    MULPOP   O      -0.22; C       0.36; Cl2 _1 -0.07; Cl2 _2 -0.07; 
 -----------------------------------------------------------------------------
@ 10  -1031.80175078       1.19D-04  -4.98D-08    11   3   8   2
      Virial theorem: -V/T =      2.000053
@    MULPOP   O      -0.22; C       0.36; Cl2 _1 -0.07; Cl2 _2 -0.07; 
 -----------------------------------------------------------------------------
@ 11  -1031.80175078       2.95D-05  -2.50D-09    11   3   8   2
      Virial theorem: -V/T =      2.000053
@    MULPOP   O      -0.22; C       0.36; Cl2 _1 -0.07; Cl2 _2 -0.07; 
 -----------------------------------------------------------------------------
@ 12  -1031.80175078       9.05D-06  -1.39D-10    11   3   8   2

@ *** DIIS converged in  12 iterations !
@     Converged SCF energy, gradient:  -1031.801750784124    9.05D-06
    - total time used in SIRFCK :              0.00 seconds


 *** SCF orbital energy analysis ***

 Only the 20 lowest virtual orbital energies printed in each symmetry.

 Number of electrons        :   48
 Closed shell orbitals      :   11    3    8    2

 Sym       Hartree-Fock orbital energies

1 A1   -104.88469771   -20.61969540   -11.46789380   -10.61014175    -8.07689683
         -8.07465382    -1.50261058    -1.20228060    -0.80972898    -0.70547713
         -0.52909864     0.12250644     0.28703382     0.37750971     0.42684601
          0.48052028     0.53196921     0.65167771     0.76430139     0.85404944
          0.97623699     1.08272039     1.28498051     1.40186972     1.76115002
          1.86884453     2.14453144     2.21644842     2.27123976     2.36142104
          2.40607611

2 B1     -8.07479479    -0.65746811    -0.49868063     0.11025814     0.41587787
          0.49371936     0.57786497     0.77653929     0.86248069     1.19818716
          2.09147426     2.12573151     2.20463205     2.28003861     2.36317610
          2.50796673     2.53962506     2.73637994     3.22746432     3.56645289
          3.70156167     4.52787863     5.56793411

3 B2   -104.88469810   -10.61015695    -8.07689881    -8.07465506    -1.14005729
         -0.71480127    -0.49311617    -0.47405614     0.24276731     0.35810384
          0.48027848     0.53345697     0.63020580     0.73879763     0.88924356
          1.02186258     1.23872839     1.42354708     2.14809160     2.18330144
          2.23544120     2.30492632     2.36980667     2.41685213     2.49759878
          2.60523639     2.65235588     2.86754259

4 A2     -8.07479722    -0.49953704     0.47958531     0.56118621     0.67581317
          1.11752355     1.85066431     2.16969404     2.23245484     2.34261716
          2.38153485     2.54438824     2.74997403     3.30923539     3.71575354
          5.98284998     6.81596860

    E(LUMO) :     0.11025814 au (symmetry 2)
  - E(HOMO) :    -0.47405614 au (symmetry 3)
  ------------------------------------------
    gap     :     0.58431429 au

 --- Writing SIRIFC interface file

--------------------------------------------------------------------------------


     .--------------------------------------------------.
     | HF-SCF KT IPs [a.u. & eV] from Koopmans' theorem |
     `--------------------------------------------------'


     HF-SCF KT symmetry 1 ( A1 ) in point group C2v -- 11 principal poles with pole strength 1

   ============  ============  ============  ============  ============
     104.884698     20.619695     11.467894     10.610142      8.076897
    2854.057807    561.090454    312.057264    288.716644    219.783543
   ============  ============  ============  ============  ============

   ============  ============  ============  ============  ============
       8.074654      1.502611      1.202281      0.809729      0.705477
     219.722508     40.888114     32.715719     22.033846     19.197009
   ============  ============  ============  ============  ============

   ============
       0.529099
      14.397506
   ============

     HF-SCF KT symmetry 2 ( B1 ) in point group C2v -- 3 principal poles with pole strength 1

   ============  ============  ============
       8.074795      0.657468      0.498681
     219.726344     17.890617     13.569790
   ============  ============  ============

     HF-SCF KT symmetry 3 ( B2 ) in point group C2v -- 8 principal poles with pole strength 1

   ============  ============  ============  ============  ============
     104.884698     10.610157      8.076899      8.074655      1.140057
    2854.057818    288.717057    219.783597    219.722541     31.022537
   ============  ============  ============  ============  ============

   ============  ============  ============
       0.714801      0.493116      0.474056
      19.450732     13.418374     12.899724
   ============  ============  ============

     HF-SCF KT symmetry 4 ( A2 ) in point group C2v -- 2 principal poles with pole strength 1

   ============  ============
       8.074797      0.499537
     219.726410     13.593094
   ============  ============

@ Summary of HF-SCF KT ionization potentials [eV]:

@ Symmetry 1 (A1 ) :  2854.058     561.090     312.057     288.717     219.784
@                      219.723      40.888      32.716      22.034      19.197
@                       14.398

@ Symmetry 2 (B1 ) :   219.726      17.891      13.570

@ Symmetry 3 (B2 ) :  2854.058     288.717     219.784     219.723      31.023
@                       19.451      13.418      12.900

@ Symmetry 4 (A2 ) :   219.726      13.593

  === End of HF-SCF KT output ===
--------------------------------------------------------------------------------


 CPU and wall time for SCF :       2.714       2.714


                       .-----------------------------------.
                       | --- Final results from SIRIUS --- |
                       `-----------------------------------'


@    Spin multiplicity:           1
@    Spatial symmetry:            1 ( irrep  A1  in C2v )
@    Total charge of molecule:    0

@    Final HF energy:           -1031.801750784124                 
@    Nuclear repulsion:           193.405553183712
@    Electronic energy:         -1225.207303967836

@    Final gradient norm:           0.000009045970

 
     Date and time (Linux)  : Mon May  4 21:44:45 2026
     Host name              : debian                                  

File label for MO orbitals:   4May26   FOCKDIIS

 (Only coefficients > 0.0100 are printed.)

 Molecular orbitals for symmetry species 1  (A1 )
 ------------------------------------------------

    Orbital         2        3        4        5        6        7        8
   1 O   :1s     0.9986  -0.0007   0.0001  -0.0002  -0.0003  -0.0123   0.0020
   2 O   :1s    -0.0031  -0.0004   0.0004  -0.0006  -0.0009   0.7650  -0.2475
   4 O   :1s     0.0013   0.0003   0.0005  -0.0001  -0.0005  -0.1021   0.0184
   5 O   :2pz    0.0053   0.0009  -0.0001   0.0001   0.0000   0.2260  -0.0137
   7 O   :2pz   -0.0017   0.0000   0.0002   0.0001  -0.0002  -0.0660   0.0120
  10 O   :3d0   -0.0006   0.0002   0.0001  -0.0002  -0.0000   0.0171  -0.0028
  14 C   :1s     0.0007   0.9991  -0.0000  -0.0003   0.0001  -0.0242   0.0020
  15 C   :1s     0.0026  -0.0004   0.0011  -0.0018   0.0004   0.4532   0.2913
  17 C   :1s    -0.0020  -0.0014  -0.0014  -0.0051   0.0006  -0.1364  -0.0993
  18 C   :2pz   -0.0009   0.0032   0.0001   0.0001   0.0001  -0.3137   0.2653
  19 C   :2pz   -0.0018  -0.0040   0.0011  -0.0023  -0.0005   0.0609  -0.0129
  20 C   :2pz    0.0012  -0.0010  -0.0000  -0.0026  -0.0002   0.0984  -0.0786
  21 C   :3d0    0.0004   0.0006  -0.0001   0.0002  -0.0000   0.0219  -0.0047
  23 C   :3d0    0.0010   0.0006  -0.0003   0.0001   0.0012   0.0191  -0.0063
  25 C   :4f0    0.0000  -0.0004   0.0001  -0.0002  -0.0001  -0.0103  -0.0013
  28 Cl2 :1s     0.0002   0.0006   0.7067   0.0031   0.0002  -0.0001   0.0006
  29 Cl2 :1s     0.0004   0.0009  -0.0003  -0.0010   0.0002   0.0802   0.5852
  31 Cl2 :1s    -0.0000   0.0004   0.0002   0.0046  -0.0002  -0.0156  -0.0190
  32 Cl2 :2py   -0.0001  -0.0005  -0.0019   0.5990  -0.3734   0.0040   0.0029
  33 Cl2 :2pz   -0.0002  -0.0004  -0.0012   0.3722   0.6007   0.0029   0.0017
  34 Cl2 :2py   -0.0004  -0.0018   0.0009  -0.0044   0.0006  -0.0189  -0.1002
  35 Cl2 :2pz   -0.0006  -0.0013   0.0006  -0.0027  -0.0011  -0.0217  -0.0410
  38 Cl2 :2py    0.0002   0.0004  -0.0005  -0.0001   0.0001   0.0061   0.0225
  43 Cl2 :3d1-   0.0003   0.0006  -0.0003   0.0010   0.0003   0.0010   0.0104

    Orbital         9       10       11       12       13       14       15
   1 O   :1s     0.0039  -0.0051  -0.0027  -0.0001  -0.0291  -0.0248  -0.0196
   2 O   :1s     0.3932  -0.2697   0.0146  -0.0693   0.2162   0.0563  -0.0670
   3 O   :1s     0.0020  -0.0016   0.0004  -0.0009   0.0041   0.0203   0.0115
   4 O   :1s     0.0426  -0.1011  -0.0245  -0.2113   3.0696  -0.2682  -0.5984
   5 O   :2pz   -0.4364   0.6182   0.1751  -0.1282  -0.0330   0.1054   0.1428
   6 O   :2pz    0.0044  -0.0182  -0.0048  -0.0070   0.2738  -0.1472  -0.0966
   7 O   :2pz    0.0248  -0.0516  -0.0110  -0.1379   1.0361  -0.4854  -0.4122
   8 O   :3d0   -0.0069   0.0107   0.0030  -0.0012  -0.0007   0.0028   0.0043
  10 O   :3d0   -0.0181   0.0211   0.0075  -0.0079   0.1491  -0.0871  -0.0804
  11 O   :3d2+  -0.0012   0.0015   0.0007   0.0081  -0.0079   0.0213   0.0012
  12 O   :4f0   -0.0031   0.0050   0.0018  -0.0012   0.0161  -0.0066  -0.0062
  14 C   :1s    -0.0009  -0.0099  -0.0051   0.0161  -0.0247  -0.1236   0.0212
  15 C   :1s    -0.6025  -0.0487  -0.0297   0.5924   0.0141  -0.7509   0.0787
  16 C   :1s     0.0025   0.0083   0.0026  -0.0218   0.0580  -0.0767   0.0215
  17 C   :1s     0.1691  -0.0434   0.0015   1.8150  -3.6086   4.3563  -0.5007
  18 C   :2pz   -0.0103  -0.5666  -0.1242   0.4263   0.0796  -0.1806   0.1514
  19 C   :2pz   -0.0412   0.0443   0.0181   0.0042   0.7292  -0.3426  -0.4197
  20 C   :2pz   -0.0437   0.1845   0.0396   0.4148   1.5607   2.3214  -0.1928
  21 C   :3d0   -0.0051   0.0120   0.0148  -0.0068  -0.0098   0.0451   0.0295
  22 C   :3d2+   0.0047   0.0051   0.0085   0.0149  -0.0097   0.0290   0.0069
  23 C   :3d0    0.0076  -0.0064   0.0406   0.0403  -0.3711   0.1926   0.3125
  24 C   :3d2+   0.0048  -0.0029   0.0183  -0.0310   0.0357  -0.2807   0.2943
  25 C   :4f0    0.0033  -0.0053   0.0006  -0.0050   0.0688  -0.0655  -0.0158
  26 C   :4f2+   0.0044   0.0022   0.0009  -0.0076   0.0108  -0.0496   0.0109
  27 Cl2 :1s    -0.0014  -0.0009  -0.0006   0.0120   0.0085  -0.0025  -0.0076
  28 Cl2 :1s    -0.0051  -0.0024  -0.0038   0.0712   0.0582  -0.0172  -0.0516
  29 Cl2 :1s     0.3044   0.1708  -0.0091  -0.1006   0.2204  -0.2158  -0.0909
  30 Cl2 :1s     0.0064   0.0070   0.0024  -0.0158  -0.0280   0.0589  -0.0064
  31 Cl2 :1s     0.0621   0.0319   0.0116  -0.8027   0.1099  -1.5522   0.4464
  32 Cl2 :2py   -0.0042  -0.0003   0.0002   0.0003  -0.0422   0.0603   0.0026
  33 Cl2 :2pz   -0.0035   0.0001   0.0004   0.0065   0.0027   0.0217   0.1816
  34 Cl2 :2py    0.2605   0.3441  -0.2622   0.3681  -0.0971   0.0533   0.1370
  35 Cl2 :2pz    0.1523   0.0627   0.6213   0.2338  -0.0583  -0.1461   0.9313
  36 Cl2 :2py   -0.0010  -0.0067  -0.0013   0.0031   0.0595  -0.0910   0.0072
  37 Cl2 :2pz    0.0008  -0.0029  -0.0016  -0.0073  -0.0072  -0.0421  -0.2256
  38 Cl2 :2py   -0.0465  -0.0402  -0.0049   0.6539   0.0031   1.2046  -0.3719
  39 Cl2 :2pz   -0.0210  -0.0093  -0.0089   0.3149  -0.3762   0.4838  -1.3016
  40 Cl2 :3d1-  -0.0150  -0.0106  -0.0073   0.0451  -0.0071  -0.0216  -0.0521
  41 Cl2 :3d0    0.0021   0.0064  -0.0033  -0.0171  -0.0305  -0.0453  -0.0541
  42 Cl2 :3d2+   0.0119   0.0134   0.0003  -0.0405  -0.0251  -0.0117  -0.0042
  43 Cl2 :3d1-  -0.0188  -0.0173  -0.0114   0.0232   0.0455  -0.3142   0.0269
  44 Cl2 :3d0    0.0034   0.0083  -0.0035  -0.0223  -0.0482  -0.0696  -0.1490
  45 Cl2 :3d2+   0.0142   0.0201  -0.0008  -0.0135  -0.1445   0.2382  -0.1035
  46 Cl2 :4f3-  -0.0032  -0.0047   0.0009  -0.0011   0.0129  -0.0212   0.0064
  47 Cl2 :4f1-   0.0006  -0.0010   0.0049   0.0033   0.0076   0.0123  -0.0070
  48 Cl2 :4f0   -0.0029  -0.0040  -0.0009   0.0021  -0.0010  -0.0114   0.0059
  49 Cl2 :4f2+  -0.0044  -0.0056  -0.0025  -0.0009   0.0043  -0.0280   0.0133

    Orbital        16       17       18       19       20       21
   1 O   :1s    -0.0164   0.0066  -0.0488   0.0014  -0.0046   0.0103
   2 O   :1s    -0.0405   0.0551  -0.1098   0.2647  -0.0128  -0.1800
   3 O   :1s     0.0030  -0.0052   0.0010  -0.0103  -0.0048  -0.0286
   4 O   :1s    -0.3710   1.2572   1.9805  -0.6421   0.5968   1.5668
   5 O   :2pz    0.0743  -0.2500  -0.3857   0.1707   0.1375  -0.3681
   6 O   :2pz   -0.0336   0.0553  -0.0367  -0.2729   0.2031   0.2841
   7 O   :2pz   -0.1498   0.3699   1.4028   1.3807   0.2080   1.0634
   8 O   :3d0   -0.0015  -0.0003  -0.0197  -0.0393   0.0033  -0.0013
  10 O   :3d0   -0.0019   0.0385   0.0981  -0.0131   0.0697   0.2157
  11 O   :3d2+  -0.0095   0.0068  -0.0309   0.0219  -0.0583   0.1062
  12 O   :4f0    0.0036   0.0011   0.0098   0.0076   0.0077   0.0187
  14 C   :1s     0.0220  -0.0779  -0.2055  -0.2410   0.2030   0.0763
  15 C   :1s    -0.0881  -0.2229  -0.6616  -1.3230   1.0941   0.6401
  16 C   :1s    -0.0454  -0.0032  -0.0068  -0.0921   0.1278   0.0723
  17 C   :1s     1.5474   0.0313  -1.2893   0.6225  -4.7684  -2.9058
  18 C   :2pz   -0.1019  -0.1563   0.1188   0.5548   0.4318  -0.3239
  19 C   :2pz    0.0563   0.1713   0.4315   0.4203   0.3302   1.0171
  20 C   :2pz    0.3172   1.5717   0.9770  -1.8778  -1.8315  -1.0521
  21 C   :3d0   -0.0175  -0.0192  -0.0491   0.0105  -0.0169  -0.0819
  22 C   :3d2+  -0.0128  -0.0050   0.0010  -0.0105  -0.0010   0.0047
  23 C   :3d0    0.2484  -0.3855  -0.2986   0.4446   0.0561  -0.7006
  24 C   :3d2+  -0.1790   0.0636   0.0209   0.1101   0.0870   0.5520
  25 C   :4f0   -0.0149   0.0034   0.0059  -0.0673   0.0655   0.1006
  26 C   :4f2+  -0.0104  -0.0208  -0.0081  -0.0149   0.0576   0.0100
  27 Cl2 :1s     0.0210   0.0283  -0.0443   0.0086  -0.1029   0.0195
  28 Cl2 :1s     0.1441   0.1924  -0.3024   0.0612  -0.7091   0.1347
  29 Cl2 :1s     0.3648   0.4680  -0.8004   0.1663  -1.7409   0.3754
  30 Cl2 :1s    -0.0182  -0.0365   0.0760  -0.0038   0.0960  -0.0520
  31 Cl2 :1s    -0.8167  -0.9745   0.8135   0.1970   3.4999   0.5922
  32 Cl2 :2py   -0.1988   0.0534   0.0160   0.0177  -0.1117  -0.2125
  33 Cl2 :2pz    0.0964   0.0811   0.1130  -0.0816  -0.0646  -0.1406
  34 Cl2 :2py   -1.1758   0.1569   0.0970   0.0640  -0.3056  -0.8507
  35 Cl2 :2pz    0.4584   0.3822   0.5934  -0.3764  -0.1814  -0.4765
  36 Cl2 :2py    0.2335  -0.0810  -0.0194  -0.0344   0.1650   0.2597
  37 Cl2 :2pz   -0.1218  -0.1028  -0.1326   0.0924   0.0961   0.1833
  38 Cl2 :2py    1.4961   0.1718  -0.0228  -0.2445  -0.7682   0.2136
  39 Cl2 :2pz   -0.2479  -0.3726  -0.7175   0.5371  -0.3147   0.4639
  40 Cl2 :3d1-   0.0318   0.0464  -0.0262   0.0211  -0.0212  -0.1104
  41 Cl2 :3d0    0.0060  -0.0213   0.0704  -0.0446  -0.0275  -0.0416
  42 Cl2 :3d2+  -0.0091   0.0637   0.0017  -0.0056   0.0926   0.0441
  43 Cl2 :3d1-   0.0088   0.2468  -0.1625   0.0180   0.0711  -0.3984
  44 Cl2 :3d0    0.0814  -0.0807   0.3504  -0.1717  -0.1167  -0.2465
  45 Cl2 :3d2+   0.0781   0.4278   0.0082   0.1078   0.2222  -0.0491
  46 Cl2 :4f3-  -0.0063  -0.0171  -0.0058  -0.0081   0.0414   0.0137
  47 Cl2 :4f1-  -0.0038  -0.0004  -0.0002   0.0092  -0.0064  -0.0160
  48 Cl2 :4f0   -0.0058   0.0054  -0.0075  -0.0097   0.0142   0.0221
  49 Cl2 :4f2+  -0.0067  -0.0014  -0.0090  -0.0209   0.0393   0.0218

 Molecular orbitals for symmetry species 2  (B1 )
 ------------------------------------------------

    Orbital         1        2        3        4        5        6        7
   1 O   :2px    0.0000   0.5739  -0.4707  -0.5313  -0.0633  -0.0487   0.1411
   2 O   :2px    0.0000   0.0065  -0.0018   0.0222  -0.0083  -0.0051   0.0797
   3 O   :2px    0.0002  -0.0153  -0.0168  -0.3041  -0.0805   0.0051   0.1351
   4 O   :3d1+  -0.0000   0.0104  -0.0058   0.0058  -0.0048  -0.0081  -0.0091
   5 O   :3d1+   0.0000   0.0281  -0.0169   0.0016  -0.0170  -0.0022   0.0295
   8 C   :2px   -0.0001   0.5274  -0.1431   0.6964  -0.4098  -0.4517  -0.2131
   9 C   :2px    0.0004  -0.0027   0.0160   0.0509  -0.4320  -0.3361  -0.0787
  10 C   :2px   -0.0004  -0.0813   0.0129   0.4389   1.1728   1.5334   0.0948
  11 C   :3d1+   0.0000  -0.0162   0.0217   0.0195   0.0056   0.0002  -0.0061
  12 C   :3d1+   0.0003  -0.0181   0.0504   0.0537  -0.0480   0.1063   0.3204
  13 C   :4f1+  -0.0000   0.0095  -0.0048  -0.0005  -0.0029  -0.0115  -0.0049
  14 C   :4f3+  -0.0001  -0.0044  -0.0036  -0.0030   0.0023  -0.0134   0.0071
  15 Cl2 :2px    0.7073   0.0010   0.0012   0.0070  -0.1707   0.2164   0.0230
  16 Cl2 :2px   -0.0010   0.3033   0.5943  -0.2038  -0.8819   1.0507   0.1210
  17 Cl2 :2px   -0.0004  -0.0042  -0.0018  -0.0162   0.2153  -0.2705  -0.0267
  18 Cl2 :2px   -0.0001  -0.0290   0.0112  -0.2053   0.6498  -1.4328  -0.1942
  19 Cl2 :3d2-  -0.0003  -0.0103  -0.0031  -0.0382  -0.0033  -0.0282  -0.0819
  20 Cl2 :3d1+  -0.0002  -0.0071  -0.0002  -0.0242   0.0007  -0.0417   0.0616
  21 Cl2 :3d2-   0.0003  -0.0166  -0.0097  -0.0777   0.0367   0.0482  -0.4022
  22 Cl2 :3d1+   0.0001  -0.0102  -0.0014  -0.0366   0.0458  -0.1269   0.3902
  23 Cl2 :4f2-   0.0000   0.0048   0.0026   0.0063  -0.0083  -0.0053  -0.0128
  25 Cl2 :4f3+  -0.0000  -0.0045  -0.0029  -0.0072   0.0070   0.0119  -0.0038

    Orbital         8        9       10       11       12       13
   1 O   :2px   -0.3199   0.4873   0.3691   0.0950  -0.0521   0.0489
   2 O   :2px   -0.0981   0.3304   0.3333  -0.0856  -0.0323  -0.0066
   3 O   :2px    0.0558  -2.1979  -0.1424  -0.6475   0.4183   0.1417
   4 O   :3d1+   0.0034   0.0321  -0.0193   0.0031   0.0008  -0.0013
   5 O   :3d1+   0.0359  -0.1251   0.0155  -0.7554   0.6357   0.2370
   6 O   :4f1+   0.0044  -0.0223   0.0081  -0.0292  -0.0250   0.0010
   8 C   :2px    0.3704  -0.2291   0.0282  -0.9862  -2.4156   0.3665
   9 C   :2px   -0.1183   0.1456  -0.0824   1.2902   1.8046  -0.4459
  10 C   :2px    0.7447   1.5139   0.5440   0.4616   0.4096  -0.0704
  11 C   :3d1+  -0.0088  -0.0108  -0.0089   0.1517  -0.0364  -0.0285
  12 C   :3d1+  -0.1123  -0.7540   1.2694  -0.5560   0.3556   0.2750
  13 C   :4f1+  -0.0139   0.0805  -0.0052  -0.0124   0.0037   0.0675
  14 C   :4f3+   0.0019   0.0093   0.0223  -0.1617  -0.0446   0.0459
  15 Cl2 :2px    0.0880   0.0619  -0.0049   0.0859   0.0720   0.0040
  16 Cl2 :2px    0.3932   0.2902  -0.1160   0.1597   0.0940  -0.0067
  17 Cl2 :2px   -0.1067  -0.0735  -0.0070  -0.1559  -0.1448  -0.0132
  18 Cl2 :2px   -0.6748  -0.5185  -0.3000  -0.0912  -0.0254  -0.0164
  19 Cl2 :3d2-   0.0743   0.0194   0.0955  -0.2933  -0.1178  -0.5073
  20 Cl2 :3d1+   0.1102   0.0165  -0.0142   0.1855  -0.1759   0.5913
  21 Cl2 :3d2-   0.3722  -0.0126   0.4999   0.2068   0.1877   0.3884
  22 Cl2 :3d1+   0.4956   0.0887   0.1039  -0.0408   0.1618  -0.4309
  23 Cl2 :4f2-   0.0086   0.0012  -0.0083   0.3159   0.1281  -0.1210
  24 Cl2 :4f1+   0.0051  -0.0049  -0.0486   0.2102  -0.0220  -0.2104
  25 Cl2 :4f3+   0.0034   0.0049  -0.0445   0.0049  -0.2422  -0.1052

 Molecular orbitals for symmetry species 3  (B2 )
 ------------------------------------------------

    Orbital         1        2        3        4        5        6        7
   1 O   :2py    0.0000   0.0000   0.0000   0.0001   0.0655   0.5463   0.6165
   3 O   :2py   -0.0000   0.0002   0.0009  -0.0005  -0.0041  -0.0201   0.0224
   5 O   :3d1-   0.0000  -0.0000   0.0003  -0.0003   0.0054   0.0219   0.0135
   8 C   :2py    0.0000   0.0001   0.0002  -0.0000   0.2395   0.5006  -0.1834
   9 C   :2py   -0.0001   0.0008  -0.0029   0.0004  -0.0025  -0.0060  -0.0119
  10 C   :2py    0.0000  -0.0010  -0.0030  -0.0000  -0.0821  -0.1374   0.0923
  11 C   :3d1-  -0.0000   0.0002  -0.0003  -0.0000   0.0104  -0.0067  -0.0370
  12 C   :3d1-  -0.0000   0.0004  -0.0011  -0.0007   0.0262  -0.0097  -0.0583
  15 Cl2 :1s     0.7071  -0.0001   0.0001   0.0000  -0.0000   0.0007  -0.0002
  16 Cl2 :1s     0.0001   0.7064   0.0032   0.0001  -0.0028   0.0009   0.0006
  17 Cl2 :1s     0.0001  -0.0009  -0.0008   0.0003   0.6621  -0.2065   0.0152
  19 Cl2 :1s    -0.0000   0.0011   0.0035  -0.0002  -0.0058  -0.0407  -0.0137
  20 Cl2 :2py   -0.0001  -0.0019   0.5990   0.3737   0.0036   0.0042   0.0014
  21 Cl2 :2pz   -0.0000  -0.0012   0.3726  -0.6007   0.0026   0.0032   0.0027
  22 Cl2 :2py   -0.0001   0.0009  -0.0037  -0.0006  -0.0372  -0.2209   0.5410
  23 Cl2 :2pz   -0.0000   0.0006  -0.0025   0.0006  -0.0428  -0.2883   0.1062
  26 Cl2 :2py    0.0000  -0.0007   0.0003   0.0000   0.0064   0.0279  -0.0003
  27 Cl2 :2pz    0.0000  -0.0005  -0.0002   0.0001   0.0077   0.0323  -0.0105
  28 Cl2 :3d1-   0.0000   0.0003  -0.0005   0.0002   0.0076   0.0176  -0.0148
  31 Cl2 :3d1-   0.0000  -0.0004   0.0010  -0.0000   0.0065   0.0207  -0.0248
  33 Cl2 :3d2+  -0.0000   0.0002  -0.0007  -0.0001  -0.0028  -0.0101   0.0144

    Orbital         8        9       10       11       12       13       14
   1 O   :2py   -0.3683  -0.2767   0.1074  -0.1781  -0.3368  -0.0548  -0.2334
   2 O   :2py   -0.0021   0.0212  -0.0938   0.0031  -0.0121  -0.0714  -0.0743
   3 O   :2py   -0.0211  -0.3775   0.3113  -0.3215   0.0753   0.4033   1.0623
   4 O   :3d1-  -0.0025   0.0096   0.0067   0.0047  -0.0002  -0.0087  -0.0279
   5 O   :3d1-  -0.0084  -0.0043  -0.0124  -0.0034   0.0699   0.0253   0.0955
   7 O   :4f1-  -0.0015   0.0000   0.0014   0.0009   0.0070   0.0003   0.0111
   8 C   :2py   -0.0315   0.6792   0.5105   0.0678   0.4292  -0.1917  -0.2867
   9 C   :2py    0.0063   0.1890  -0.0243  -0.2283  -0.2108   0.0725  -0.1051
  10 C   :2py   -0.0165   1.2391  -3.2429   1.4452  -0.0311  -0.0995   1.2348
  11 C   :3d1-   0.0090   0.0067   0.0271  -0.0205  -0.0187   0.0016  -0.0106
  12 C   :3d1-   0.0042   0.0117  -0.4805  -0.1181   0.0904   0.1308   0.9518
  13 C   :4f3-  -0.0017  -0.0033   0.0309  -0.0081  -0.0037  -0.0173  -0.0291
  14 C   :4f1-  -0.0102   0.0019   0.0018  -0.0071  -0.0199  -0.0021  -0.0374
  15 Cl2 :1s    -0.0000   0.0159  -0.0072  -0.0057  -0.0088   0.0227   0.0494
  16 Cl2 :1s    -0.0007   0.0951  -0.0459  -0.0386  -0.0605   0.1560   0.3444
  17 Cl2 :1s    -0.0083  -0.0645   0.0594  -0.1104  -0.1681   0.4146   0.8995
  18 Cl2 :1s    -0.0013  -0.0250  -0.0328   0.0111   0.0129  -0.0290  -0.0225
  19 Cl2 :1s     0.0120  -1.0400   1.7955  -0.3853   0.1069  -0.4601  -1.9866
  20 Cl2 :2py    0.0004  -0.0435  -0.0106   0.2264   0.0533  -0.0031   0.2023
  21 Cl2 :2pz   -0.0053  -0.0499  -0.0710  -0.0854   0.2742  -0.0504   0.0600
  22 Cl2 :2py    0.3233  -0.0170   0.2562   1.0515   0.3031  -0.0760   0.7093
  23 Cl2 :2pz   -0.6145  -0.0648  -0.1743  -0.3582   1.4076  -0.2773   0.1471
  24 Cl2 :2py    0.0011   0.0567   0.0236  -0.2814  -0.0592  -0.0032  -0.2631
  25 Cl2 :2pz    0.0058   0.0670   0.0973   0.1131  -0.3322   0.0586  -0.0815
  26 Cl2 :2py    0.0033   0.8337  -1.0645  -1.1814  -0.2715   0.1639  -0.0552
  27 Cl2 :2pz   -0.0083   0.8186  -0.6942   0.7429  -1.4506   0.3090   0.3715
  28 Cl2 :3d1-   0.0000   0.0698   0.0117   0.0080  -0.0072  -0.0361   0.0850
  29 Cl2 :3d0    0.0001   0.0174  -0.0097   0.0611   0.0179   0.0845  -0.0415
  30 Cl2 :3d2+  -0.0008  -0.0370  -0.0164   0.0704  -0.0040  -0.0675  -0.0360
  31 Cl2 :3d1-   0.0053   0.0467   0.3035   0.0632   0.0269  -0.2229   0.1712
  32 Cl2 :3d0    0.0026   0.0152   0.0099   0.1257   0.1118   0.4715  -0.0746
  33 Cl2 :3d2+  -0.0008  -0.0145  -0.2131   0.1204  -0.0743  -0.2882  -0.0108
  34 Cl2 :4f3-  -0.0006  -0.0026   0.0142   0.0069   0.0040  -0.0025  -0.0152
  35 Cl2 :4f1-  -0.0042  -0.0029  -0.0108  -0.0015  -0.0079   0.0006   0.0058
  36 Cl2 :4f0   -0.0003  -0.0013   0.0153   0.0028  -0.0012  -0.0108  -0.0226
  37 Cl2 :4f2+   0.0006  -0.0015   0.0260   0.0047   0.0044  -0.0061  -0.0296

    Orbital        15       16       17       18
   1 O   :2py   -0.1419  -0.4159   0.0040   0.4241
   2 O   :2py    0.0188  -0.3140   0.1787   0.4300
   3 O   :2py   -0.1358   2.2665  -0.9592  -0.3245
   4 O   :3d1-   0.0018  -0.0209   0.0103  -0.0209
   5 O   :3d1-   0.0298   0.1154   0.1010   0.0058
   7 O   :4f1-   0.0045   0.0175  -0.0007   0.0139
   8 C   :2py    0.4028   0.5764   0.3035   0.6033
   9 C   :2py   -0.1022   0.3364   0.7090   0.2855
  10 C   :2py    1.4697  -3.4755   3.7814   1.5136
  11 C   :3d1-  -0.0076  -0.0263  -0.0703  -0.0227
  12 C   :3d1-   0.2229   0.6160   0.5708   2.1403
  13 C   :4f3-  -0.0059  -0.0155  -0.0555  -0.0421
  14 C   :4f1-  -0.0018  -0.0545   0.0151   0.0105
  15 Cl2 :1s    -0.0146  -0.0416   0.1505  -0.0158
  16 Cl2 :1s    -0.1042  -0.2865   1.0596  -0.1037
  17 Cl2 :1s    -0.3351  -0.7032   2.5944  -0.3035
  18 Cl2 :1s     0.0326   0.0553  -0.0323   0.1237
  19 Cl2 :1s    -0.4741   1.8983  -5.7104  -1.6147
  20 Cl2 :2py    0.2254   0.0047   0.0755   0.4187
  21 Cl2 :2pz   -0.0268  -0.0194   0.0647   0.2913
  22 Cl2 :2py    0.9734   0.0760   0.3696   1.6369
  23 Cl2 :2pz   -0.0949  -0.0501   0.3134   0.9881
  24 Cl2 :2py   -0.2718   0.0014  -0.0833  -0.4980
  25 Cl2 :2pz    0.0366   0.0288  -0.0727  -0.3807
  26 Cl2 :2py   -0.8054  -0.0232   1.3315  -0.1578
  27 Cl2 :2pz    0.7049  -0.4243   1.1719  -0.0882
  28 Cl2 :3d1-  -0.0876  -0.0455  -0.0727   0.0875
  29 Cl2 :3d0   -0.0975  -0.0082  -0.0255   0.0523
  30 Cl2 :3d2+  -0.1036   0.0777   0.0802  -0.0594
  31 Cl2 :3d1-  -0.4204  -0.2990  -0.5979  -0.4760
  32 Cl2 :3d0   -0.3703   0.1362  -0.0726   0.2930
  33 Cl2 :3d2+  -0.3104   0.4395   0.4152   0.4527
  34 Cl2 :4f3-  -0.0122   0.0002  -0.0013  -0.0226
  35 Cl2 :4f1-  -0.0098  -0.0247   0.0011   0.0445
  36 Cl2 :4f0    0.0056  -0.0197  -0.0210   0.0558
  37 Cl2 :4f2+   0.0063   0.0104  -0.0321  -0.0184

 Molecular orbitals for symmetry species 4  (A2 )
 ------------------------------------------------

    Orbital         1        2        3        4        5        6        7
   1 O   :3d2-   0.0000   0.0007  -0.0025  -0.0025  -0.0008   0.0065  -0.0106
   2 O   :3d2-  -0.0001  -0.0001   0.0134  -0.0327  -0.0109   0.1944   0.9311
   4 C   :3d2-   0.0000   0.0109   0.0019  -0.0105  -0.0156  -0.0201  -0.0710
   5 C   :3d2-   0.0004   0.0316  -0.2400  -0.3383  -0.0596   1.1573  -0.5266
   6 C   :4f2-   0.0001   0.0061  -0.0087   0.0067  -0.0033  -0.0193  -0.1092
   7 Cl2 :2px    0.7073   0.0025  -0.2535   0.1294   0.0952  -0.0143  -0.0756
   8 Cl2 :2px   -0.0010   0.7090  -1.2153   0.6703   0.4887  -0.1352  -0.0504
   9 Cl2 :2px   -0.0004  -0.0038   0.3191  -0.1590  -0.1124   0.0111   0.1610
  10 Cl2 :2px   -0.0001   0.0041   1.4000  -0.5813  -0.5253  -0.2762   0.1246
  11 Cl2 :3d2-  -0.0003  -0.0038   0.0579   0.0417   0.1189   0.0481  -0.0128
  12 Cl2 :3d1+  -0.0002  -0.0036   0.0321   0.0966  -0.0578   0.0739  -0.0080
  13 Cl2 :3d2-   0.0002  -0.0105   0.1725   0.0965   0.5206   0.4249  -0.1662
  14 Cl2 :3d1+   0.0002  -0.0067   0.0727   0.4334  -0.2988   0.4309  -0.1428
  15 Cl2 :4f2-   0.0000   0.0044   0.0022  -0.0005  -0.0040   0.0183  -0.1463
  16 Cl2 :4f1+  -0.0000   0.0002   0.0012  -0.0050   0.0002   0.0281  -0.0473
  17 Cl2 :4f3+  -0.0000  -0.0034  -0.0005  -0.0070  -0.0022   0.0052   0.0858

    Orbital         8        9       10       11       12
   2 O   :3d2-   0.2598  -0.0315  -0.1084  -0.0068   0.0378
   4 C   :3d2-   0.1014  -0.0078  -0.0855  -0.0390   0.0496
   5 C   :3d2-  -0.0637   0.0503   0.1321   0.0306  -0.2131
   6 C   :4f2-   0.2302  -0.0628  -0.1090  -0.0157   0.0311
   7 Cl2 :2px   -0.0252   0.0573  -0.1575  -0.1583  -1.0156
   8 Cl2 :2px   -0.0666   0.1095  -0.3174  -0.3262  -2.2465
   9 Cl2 :2px    0.0477  -0.1102   0.2939   0.2945   1.8476
  10 Cl2 :2px    0.0139  -0.0407   0.1115   0.1452   1.3645
  11 Cl2 :3d2-  -0.4223   0.5355  -0.3971  -0.2124   0.2697
  12 Cl2 :3d1+  -0.5375  -0.6188  -0.0727   0.0363   0.1076
  13 Cl2 :3d2-   0.3530  -0.3988   0.3113   0.1701  -0.2882
  14 Cl2 :3d1+   0.3927   0.4523   0.0744  -0.0229  -0.1302
  15 Cl2 :4f2-   0.1844   0.0560  -0.0476   0.4475   0.1728
  16 Cl2 :4f1+  -0.0608   0.1231   0.5757  -0.2210   0.0882
  17 Cl2 :4f3+  -0.2912   0.1989   0.1782   0.4584  -0.2008

  Total CPU  time used in SIRIUS :   2.74 seconds
  Total wall time used in SIRIUS :   2.75 seconds

 
     Date and time (Linux)  : Mon May  4 21:44:45 2026
     Host name              : debian                                  


                     .---------------------------------------.
                     | End of Wave Function Section (SIRIUS) |
                     `---------------------------------------'

  Total CPU  time used in DALTON:   2.90 seconds
  Total wall time used in DALTON:   2.90 seconds

 
     Date and time (Linux)  : Mon May  4 21:44:45 2026
     Host name              : debian                                  
