
    -----------------------------------------------------------------------
          Psi4: An Open-Source Ab Initio Electronic Structure Package
                               Psi4 1.10 release

                         Git: Rev {} zzzzzzz 


    D. G. A. Smith, L. A. Burns, A. C. Simmonett, R. M. Parrish,
    M. C. Schieber, R. Galvelis, P. Kraus, H. Kruse, R. Di Remigio,
    A. Alenaizan, A. M. James, S. Lehtola, J. P. Misiewicz, M. Scheurer,
    R. A. Shaw, J. B. Schriber, Y. Xie, Z. L. Glick, D. A. Sirianni,
    J. S. O'Brien, J. M. Waldrop, A. Kumar, E. G. Hohenstein,
    B. P. Pritchard, B. R. Brooks, H. F. Schaefer III, A. Yu. Sokolov,
    K. Patkowski, A. E. DePrince III, U. Bozkaya, R. A. King,
    F. A. Evangelista, J. M. Turney, T. D. Crawford, C. D. Sherrill,
    J. Chem. Phys. 152(18) 184108 (2020). https://doi.org/10.1063/5.0006002

                            Additional Code Authors
    E. T. Seidl, C. L. Janssen, E. F. Valeev, M. L. Leininger,
    J. F. Gonthier, R. M. Richard, H. R. McAlexander, M. Saitow, X. Wang,
    P. Verma, M. H. Lechner, A. Jiang, S. Behnle, A. G. Heide,
    M. F. Herbst, D. L. Poole, T. Győri, E. C. Mitchell, J. P. Pederson,
    and A. M. Wallace

             Previous Authors, Complete List of Code Contributors,
                       and Citations for Specific Modules
    https://github.com/psi4/psi4/blob/master/codemeta.json
    https://github.com/psi4/psi4/graphs/contributors
    https://psicode.org/psi4manual/master/introduction.html#citing-psifour

    -----------------------------------------------------------------------


    Psi4 started on: Tuesday, 05 May 2026 10:26AM

    Process ID: 12323
    Host:       debian
    PSIDATADIR: /home/vdwv/DIPLOM_ITMO/CALCULATIONS_AND_SOFTS/softwares/Psi4_Shenanigans/psi4conda/share/psi4
    Memory:     500.0 MiB
    Threads:    1
    Addons:     adcc, a̶m̶b̶i̶t̶, b̶s̶e̶, c̶c̶t̶3̶, c̶f̶o̶u̶r̶, c̶h̶e̶m̶p̶s̶2̶, c̶p̶p̶e̶, ddx, dftd3, dftd4,
                dkh, ecpint, einsums, f̶o̶r̶t̶e̶, g̶a̶u̶x̶c̶, gcp, g̶d̶m̶a̶, geometric,
                g̶p̶u̶_̶d̶f̶c̶c̶, i̶n̶t̶e̶g̶r̶a̶t̶o̶r̶x̶x̶, i̶p̶i̶, libefp, m̶d̶i̶, m̶p̶2̶d̶,
                m̶r̶c̶c̶, ooo, o̶p̶e̶n̶f̶e̶r̶m̶i̶o̶n̶p̶s̶i̶4̶, pcmsolver, p̶s̶i̶4̶f̶o̶c̶k̶c̶i̶,
                p̶s̶i̶x̶a̶s̶, r̶e̶s̶p̶, s̶i̶m̶i̶n̶t̶, s̶n̶s̶m̶p̶2̶, v̶2̶r̶d̶m̶_̶c̶a̶s̶s̶c̶f̶

  ==> Input File <==

--------------------------------------------------------------------------
#! Sample DFT/3-21G CH3COOH computation

memory 600 mb

molecule ch3cooh {
  C1   1.144 -0.816  0.000
  C2   0.000  0.168  0.000
  O3   0.057  1.390  0.000
  H4   2.090 -0.276  0.000
  H5   1.074 -1.459  0.883
  H6   1.074 -1.459 -0.883
  O7  -1.202  0.522  0.000
  H8  -1.942  0.147  0.000
  units angstrom
}


set basis 3-21G
energy('scf', dft_functional = 'b3lyp')

--------------------------------------------------------------------------

  Memory set to 572.205 MiB by Python driver.

Scratch directory: /tmp/
   => Libint2 <=

    Primary   basis highest AM E, G, H:  6, 6, 3
    Auxiliary basis highest AM E, G, H:  7, 7, 4
    Onebody   basis highest AM E, G, H:  -, -, -
    Solid Harmonics ordering:            Gaussian

*** tstart() called on debian
*** at Tue May  5 10:26:37 2026

   => Loading Basis Set <=

    Name: 3-21G
    Role: ORBITAL
    Keyword: BASIS
    atoms 1-2    entry C          line    68 file /home/vdwv/DIPLOM_ITMO/CALCULATIONS_AND_SOFTS/softwares/Psi4_Shenanigans/psi4conda/share/psi4/basis/3-21g.gbs 
    atoms 3, 7   entry O          line    90 file /home/vdwv/DIPLOM_ITMO/CALCULATIONS_AND_SOFTS/softwares/Psi4_Shenanigans/psi4conda/share/psi4/basis/3-21g.gbs 
    atoms 4-6, 8 entry H          line    21 file /home/vdwv/DIPLOM_ITMO/CALCULATIONS_AND_SOFTS/softwares/Psi4_Shenanigans/psi4conda/share/psi4/basis/3-21g.gbs 


         ---------------------------------------------------------
                                   SCF
               by Justin Turney, Rob Parrish, Andy Simmonett
                          and Daniel G. A. Smith
                              RKS Reference
                        1 Threads,    572 MiB Core
         ---------------------------------------------------------

  ==> Geometry <==

    Molecular point group: cs
    Full point group: Cs

    Geometry (in Angstrom), charge = 0, multiplicity = 1:

       Center              X                  Y                   Z               Mass       
    ------------   -----------------  -----------------  -----------------  -----------------
         C            1.181856851234    -1.144808106199     0.000000000000    12.000000000000
         C            0.037856851234    -0.160808106199     0.000000000000    12.000000000000
         O            0.094856851234     1.061191893801     0.000000000000    15.994914619570
         H            2.127856851234    -0.604808106199     0.000000000000     1.007825032230
         H            1.111856851234    -1.787808106199     0.883000000000     1.007825032230
         H            1.111856851234    -1.787808106199    -0.883000000000     1.007825032230
         O           -1.164143148766     0.193191893801     0.000000000000    15.994914619570
         H           -1.904143148766    -0.181808106199     0.000000000000     1.007825032230

  Running in cs symmetry.

  Rotational constants: A =      0.72059  B =      0.23895  C =      0.18566 [cm^-1]
  Rotational constants: A =  21602.87978  B =   7163.54730  C =   5565.87231 [MHz]
  Nuclear repulsion =  127.788495078475947

  Charge       = 0
  Multiplicity = 1
  Electrons    = 32
  Nalpha       = 16
  Nbeta        = 16

  ==> Algorithm <==

  SCF Algorithm Type is DF.
  DIIS enabled.
  MOM disabled.
  Fractional occupation disabled.
  Guess Type is SAD.
  Energy threshold   = 1.00e-06
  Density threshold  = 1.00e-06
  Integral threshold = 1.00e-12

  ==> Primary Basis <==

  Basis Set: 3-21G
    Blend: 3-21G
    Number of shells: 28
    Number of basis functions: 44
    Number of Cartesian functions: 44
    Spherical Harmonics?: false
    Max angular momentum: 1

  ==> DFT Potential <==

   => LibXC <=

    Version 7.0.0
    S. Lehtola, C. Steigemann, M. J.T. Oliveira, and M. A.L. Marques.,  SoftwareX 7, 1–5 (2018) (10.1016/j.softx.2017.11.002)

   => Composite Functional: B3LYP <= 

    B3LYP Hyb-GGA Exchange-Correlation Functional

    P. J. Stephens, F. J. Devlin, C. F. Chabalowski, and M. J. Frisch.,  J. Phys. Chem. 98, 11623 (1994) (10.1021/j100096a001)

    Deriv               =              1
    GGA                 =           TRUE
    Meta                =          FALSE

    Exchange Hybrid     =           TRUE
    MP2 Hybrid          =          FALSE

   => Exchange Functionals <=

    0.0800   Slater exchange
    0.7200         Becke 88

   => Exact (HF) Exchange <=

    0.2000               HF 

   => Correlation Functionals <=

    0.1900   Vosko, Wilk & Nusair (VWN5_RPA)
    0.8100   Lee, Yang & Parr

   => LibXC Density Thresholds  <==

    XC_HYB_GGA_XC_B3LYP:  1.00E-15 

   => Molecular Quadrature <=

    Radial Scheme          =       TREUTLER
    Pruning Scheme         =           NONE
    Nuclear Scheme         =       TREUTLER

    Blocking Scheme        =         OCTREE
    BS radius alpha        =              1
    Pruning alpha          =              1
    Radial Points          =             75
    Spherical Points       =            302
    Total Points           =         170752
    Total Blocks           =           1344
    Max Points             =            256
    Max Functions          =             43
    Weights Tolerance      =       1.00E-15

   => Loading Basis Set <=

    Name: (3-21G AUX)
    Role: JKFIT
    Keyword: DF_BASIS_SCF
    atoms 1-2    entry C          line   198 file /home/vdwv/DIPLOM_ITMO/CALCULATIONS_AND_SOFTS/softwares/Psi4_Shenanigans/psi4conda/share/psi4/basis/def2-universal-jkfit.gbs 
    atoms 3, 7   entry O          line   318 file /home/vdwv/DIPLOM_ITMO/CALCULATIONS_AND_SOFTS/softwares/Psi4_Shenanigans/psi4conda/share/psi4/basis/def2-universal-jkfit.gbs 
    atoms 4-6, 8 entry H          line    18 file /home/vdwv/DIPLOM_ITMO/CALCULATIONS_AND_SOFTS/softwares/Psi4_Shenanigans/psi4conda/share/psi4/basis/def2-universal-jkfit.gbs 

  ==> Integral Setup <==

  DFHelper Memory: AOs need 0.008 GiB; user supplied 0.246 GiB. 
  SCF_SUBTYPE=INCORE selected. In-core MEM_DF algorithm will be used.
  Using in-core AOs.

  ==> MemDFJK: Density-Fitted J/K Matrices <==

    J tasked:                   Yes
    K tasked:                   Yes
    wK tasked:                   No
    OpenMP threads:               1
    Memory [MiB]:               251
    Algorithm:                 Core
    Schwarz Cutoff:           1E-12
    Mask sparsity (%):       0.8264
    Fitting Condition:        1E-10

   => Auxiliary Basis Set <=

  Basis Set: (3-21G AUX)
    Blend: DEF2-UNIVERSAL-JKFIT
    Number of shells: 124
    Number of basis functions: 444
    Number of Cartesian functions: 444
    Spherical Harmonics?: false
    Max angular momentum: 4

  Cached 100.0% of DFT collocation blocks in 0.174 [GiB].

  Minimum eigenvalue in the overlap matrix is 1.0820455398E-02.
  Reciprocal condition number of the overlap matrix is 2.7896638563E-03.
    Using symmetric orthogonalization.

  ==> Pre-Iterations <==

  SCF Guess: Superposition of Atomic Densities via on-the-fly atomic UHF (no occupation information).

   -------------------------
    Irrep   Nso     Nmo    
   -------------------------
     A'        34      34 
     A"        10      10 
   -------------------------
    Total      44      44
   -------------------------

  ==> Iterations <==

                           Total Energy        Delta E     RMS |[F,P]|

   @DF-RKS iter SAD:  -225.91824524832282   -2.25918e+02   0.00000e+00 
    Occupation by irrep:
             Ap   App 
    DOCC [    13,    3 ]
    NA   [    13,    3 ]
    NB   [    13,    3 ]

   @DF-RKS iter   1:  -222.44435432736213    3.47389e+00   6.44474e-02 DIIS/ADIIS
   @DF-RKS iter   2:  -211.95918443601931    1.04852e+01   1.51800e-01 ADIIS
   @DF-RKS iter   3:  -226.36293670879968   -1.44038e+01   4.39208e-02 DIIS/ADIIS
   @DF-RKS iter   4:  -227.09204741510206   -7.29111e-01   2.43377e-02 DIIS/ADIIS
   @DF-RKS iter   5:  -227.33900078938163   -2.46953e-01   1.48813e-02 DIIS/ADIIS
   @DF-RKS iter   6:  -227.43803356070489   -9.90328e-02   4.95691e-03 DIIS/ADIIS
   @DF-RKS iter   7:  -227.45001708985865   -1.19835e-02   4.95022e-04 DIIS/ADIIS
   @DF-RKS iter   8:  -227.45009980864677   -8.27188e-05   2.92254e-04 DIIS/ADIIS
   @DF-RKS iter   9:  -227.45013910110805   -3.92925e-05   2.91852e-05 DIIS
   @DF-RKS iter  10:  -227.45013960653802   -5.05430e-07   1.36342e-06 DIIS
   @DF-RKS iter  11:  -227.45013960804184   -1.50382e-09   4.51554e-07 DIIS
  Energy and wave function converged.


  ==> Post-Iterations <==

   Electrons on quadrature grid:
      Ntotal   =   31.9999885430 ; deviation = -1.146e-05 

    Orbital Energies [Eh]
    ---------------------

    Doubly Occupied:                                                      

       1Ap   -19.020318     2Ap   -18.941667     3Ap   -10.249497  
       4Ap   -10.168237     5Ap    -1.202273     6Ap    -0.957264  
       7Ap    -0.778065     8Ap    -0.649039     9Ap    -0.538444  
       1App   -0.487051    10Ap    -0.452514     2App   -0.419564  
      11Ap    -0.373447    12Ap    -0.355146     3App   -0.222725  
      13Ap    -0.096145  

    Virtual:                                                              

       4App    0.013366    14Ap     0.095458    15Ap     0.126659  
       5App    0.167956    16Ap     0.169086    17Ap     0.200613  
      18Ap     0.316473    19Ap     0.444784     6App    0.664605  
      20Ap     0.689404    21Ap     0.764275    22Ap     0.804636  
       7App    0.807825    23Ap     0.844089    24Ap     0.963154  
       8App    1.004610    25Ap     1.016473    26Ap     1.220022  
      27Ap     1.358582     9App    1.496250    28Ap     1.529544  
      10App    1.566151    29Ap     1.632377    30Ap     1.800903  
      31Ap     1.960937    32Ap     2.055432    33Ap     3.147576  
      34Ap     3.307494  

    Final Occupation by Irrep:
             Ap   App 
    DOCC [    13,    3 ]
    NA   [    13,    3 ]
    NB   [    13,    3 ]

  @DF-RKS Final Energy:  -227.45013960804184

   => Energetics <=

    Nuclear Repulsion Energy =            127.7884950784759468
    One-Electron Energy =                -563.4247970162764432
    Two-Electron Energy =                 232.1839465022375748
    DFT Exchange-Correlation Energy =     -23.9977841724789123
    Empirical Dispersion Energy =           0.0000000000000000
    VV10 Nonlocal Energy =                  0.0000000000000000
    Total Energy =                       -227.4501396080418374

Computation Completed


Properties will be evaluated at   0.000000,   0.000000,   0.000000 [a0]

Properties computed using the SCF density matrix


 Multipole Moments:

 ------------------------------------------------------------------------------------
     Multipole            Electronic (a.u.)      Nuclear  (a.u.)        Total (a.u.)
 ------------------------------------------------------------------------------------

 L = 1.  Multiply by 2.5417464519 to convert [e a0] to [Debye]
 Dipole X            :         -2.1396899            2.2892506            0.1495607
 Dipole Y            :          2.4307441           -4.0834325           -1.6526883
 Dipole Z            :          0.0000000            0.0000000            0.0000000
 Magnitude           :                                                    1.6594418

 ------------------------------------------------------------------------------------

*** tstop() called on debian at Tue May  5 10:26:43 2026
Module time:
	user time   =       5.80 seconds =       0.10 minutes
	system time =       0.29 seconds =       0.00 minutes
	total time  =          6 seconds =       0.10 minutes
Total time:
	user time   =       5.80 seconds =       0.10 minutes
	system time =       0.29 seconds =       0.00 minutes
	total time  =          6 seconds =       0.10 minutes

    Psi4 stopped on: Tuesday, 05 May 2026 10:26AM
    Psi4 wall time for execution: 0:00:06.19

*** Psi4 exiting successfully. Buy a developer a beer!
