
    -----------------------------------------------------------------------
          Psi4: An Open-Source Ab Initio Electronic Structure Package
                               Psi4 1.10 release

                         Git: Rev {} zzzzzzz 


    D. G. A. Smith, L. A. Burns, A. C. Simmonett, R. M. Parrish,
    M. C. Schieber, R. Galvelis, P. Kraus, H. Kruse, R. Di Remigio,
    A. Alenaizan, A. M. James, S. Lehtola, J. P. Misiewicz, M. Scheurer,
    R. A. Shaw, J. B. Schriber, Y. Xie, Z. L. Glick, D. A. Sirianni,
    J. S. O'Brien, J. M. Waldrop, A. Kumar, E. G. Hohenstein,
    B. P. Pritchard, B. R. Brooks, H. F. Schaefer III, A. Yu. Sokolov,
    K. Patkowski, A. E. DePrince III, U. Bozkaya, R. A. King,
    F. A. Evangelista, J. M. Turney, T. D. Crawford, C. D. Sherrill,
    J. Chem. Phys. 152(18) 184108 (2020). https://doi.org/10.1063/5.0006002

                            Additional Code Authors
    E. T. Seidl, C. L. Janssen, E. F. Valeev, M. L. Leininger,
    J. F. Gonthier, R. M. Richard, H. R. McAlexander, M. Saitow, X. Wang,
    P. Verma, M. H. Lechner, A. Jiang, S. Behnle, A. G. Heide,
    M. F. Herbst, D. L. Poole, T. Győri, E. C. Mitchell, J. P. Pederson,
    and A. M. Wallace

             Previous Authors, Complete List of Code Contributors,
                       and Citations for Specific Modules
    https://github.com/psi4/psi4/blob/master/codemeta.json
    https://github.com/psi4/psi4/graphs/contributors
    https://psicode.org/psi4manual/master/introduction.html#citing-psifour

    -----------------------------------------------------------------------


    Psi4 started on: Thursday, 07 May 2026 05:30PM

    Process ID: 8092
    Host:       debian
    PSIDATADIR: /home/vdwv/DIPLOM_ITMO/CALCULATIONS_AND_SOFTS/softwares/Psi4_Shenanigans/psi4conda/share/psi4
    Memory:     500.0 MiB
    Threads:    1
    Addons:     adcc, a̶m̶b̶i̶t̶, b̶s̶e̶, c̶c̶t̶3̶, c̶f̶o̶u̶r̶, c̶h̶e̶m̶p̶s̶2̶, c̶p̶p̶e̶, ddx, dftd3, dftd4,
                dkh, ecpint, einsums, f̶o̶r̶t̶e̶, g̶a̶u̶x̶c̶, gcp, g̶d̶m̶a̶, geometric,
                g̶p̶u̶_̶d̶f̶c̶c̶, i̶n̶t̶e̶g̶r̶a̶t̶o̶r̶x̶x̶, i̶p̶i̶, libefp, m̶d̶i̶, m̶p̶2̶d̶,
                m̶r̶c̶c̶, ooo, o̶p̶e̶n̶f̶e̶r̶m̶i̶o̶n̶p̶s̶i̶4̶, pcmsolver, p̶s̶i̶4̶f̶o̶c̶k̶c̶i̶,
                p̶s̶i̶x̶a̶s̶, r̶e̶s̶p̶, s̶i̶m̶i̶n̶t̶, s̶n̶s̶m̶p̶2̶, v̶2̶r̶d̶m̶_̶c̶a̶s̶s̶c̶f̶

  ==> Input File <==

--------------------------------------------------------------------------
#! Sample DFT/3-21G CH3COOH computation

memory 600 mb

molecule ch3cooh {
  C1   1.144 -0.816  0.000
  C2   0.000  0.168  0.000
  O3   0.057  1.390  0.000
  H4   2.090 -0.276  0.000
  H5   1.074 -1.459  0.883
  H6   1.074 -1.459 -0.883
  O7  -1.202 -0.522  0.000
  H8  -1.942  0.147  0.000
  units angstrom
}


set basis 3-21G
energy('scf', dft_functional = 'b3lyp')

--------------------------------------------------------------------------

  Memory set to 572.205 MiB by Python driver.

Scratch directory: /tmp/
   => Libint2 <=

    Primary   basis highest AM E, G, H:  6, 6, 3
    Auxiliary basis highest AM E, G, H:  7, 7, 4
    Onebody   basis highest AM E, G, H:  -, -, -
    Solid Harmonics ordering:            Gaussian

*** tstart() called on debian
*** at Thu May  7 17:30:40 2026

   => Loading Basis Set <=

    Name: 3-21G
    Role: ORBITAL
    Keyword: BASIS
    atoms 1-2    entry C          line    68 file /home/vdwv/DIPLOM_ITMO/CALCULATIONS_AND_SOFTS/softwares/Psi4_Shenanigans/psi4conda/share/psi4/basis/3-21g.gbs 
    atoms 3, 7   entry O          line    90 file /home/vdwv/DIPLOM_ITMO/CALCULATIONS_AND_SOFTS/softwares/Psi4_Shenanigans/psi4conda/share/psi4/basis/3-21g.gbs 
    atoms 4-6, 8 entry H          line    21 file /home/vdwv/DIPLOM_ITMO/CALCULATIONS_AND_SOFTS/softwares/Psi4_Shenanigans/psi4conda/share/psi4/basis/3-21g.gbs 


         ---------------------------------------------------------
                                   SCF
               by Justin Turney, Rob Parrish, Andy Simmonett
                          and Daniel G. A. Smith
                              RKS Reference
                        1 Threads,    572 MiB Core
         ---------------------------------------------------------

  ==> Geometry <==

    Molecular point group: cs
    Full point group: Cs

    Geometry (in Angstrom), charge = 0, multiplicity = 1:

       Center              X                  Y                   Z               Mass       
    ------------   -----------------  -----------------  -----------------  -----------------
         C            1.181856851234    -0.866594566423     0.000000000000    12.000000000000
         C            0.037856851234     0.117405433577     0.000000000000    12.000000000000
         O            0.094856851234     1.339405433577     0.000000000000    15.994914619570
         H            2.127856851234    -0.326594566423     0.000000000000     1.007825032230
         H            1.111856851234    -1.509594566423     0.883000000000     1.007825032230
         H            1.111856851234    -1.509594566423    -0.883000000000     1.007825032230
         O           -1.164143148766    -0.572594566423     0.000000000000    15.994914619570
         H           -1.904143148766     0.096405433577     0.000000000000     1.007825032230

  Running in cs symmetry.

  Rotational constants: A =      0.36444  B =      0.31205  C =      0.17355 [cm^-1]
  Rotational constants: A =  10925.60379  B =   9355.07621  C =   5202.84466 [MHz]
  Nuclear repulsion =  119.547584559652080

  Charge       = 0
  Multiplicity = 1
  Electrons    = 32
  Nalpha       = 16
  Nbeta        = 16

  ==> Algorithm <==

  SCF Algorithm Type is DF.
  DIIS enabled.
  MOM disabled.
  Fractional occupation disabled.
  Guess Type is SAD.
  Energy threshold   = 1.00e-06
  Density threshold  = 1.00e-06
  Integral threshold = 1.00e-12

  ==> Primary Basis <==

  Basis Set: 3-21G
    Blend: 3-21G
    Number of shells: 28
    Number of basis functions: 44
    Number of Cartesian functions: 44
    Spherical Harmonics?: false
    Max angular momentum: 1

  ==> DFT Potential <==

   => LibXC <=

    Version 7.0.0
    S. Lehtola, C. Steigemann, M. J.T. Oliveira, and M. A.L. Marques.,  SoftwareX 7, 1–5 (2018) (10.1016/j.softx.2017.11.002)

   => Composite Functional: B3LYP <= 

    B3LYP Hyb-GGA Exchange-Correlation Functional

    P. J. Stephens, F. J. Devlin, C. F. Chabalowski, and M. J. Frisch.,  J. Phys. Chem. 98, 11623 (1994) (10.1021/j100096a001)

    Deriv               =              1
    GGA                 =           TRUE
    Meta                =          FALSE

    Exchange Hybrid     =           TRUE
    MP2 Hybrid          =          FALSE

   => Exchange Functionals <=

    0.0800   Slater exchange
    0.7200         Becke 88

   => Exact (HF) Exchange <=

    0.2000               HF 

   => Correlation Functionals <=

    0.1900   Vosko, Wilk & Nusair (VWN5_RPA)
    0.8100   Lee, Yang & Parr

   => LibXC Density Thresholds  <==

    XC_HYB_GGA_XC_B3LYP:  1.00E-15 

   => Molecular Quadrature <=

    Radial Scheme          =       TREUTLER
    Pruning Scheme         =           NONE
    Nuclear Scheme         =       TREUTLER

    Blocking Scheme        =         OCTREE
    BS radius alpha        =              1
    Pruning alpha          =              1
    Radial Points          =             75
    Spherical Points       =            302
    Total Points           =         170728
    Total Blocks           =           1328
    Max Points             =            255
    Max Functions          =             43
    Weights Tolerance      =       1.00E-15

   => Loading Basis Set <=

    Name: (3-21G AUX)
    Role: JKFIT
    Keyword: DF_BASIS_SCF
    atoms 1-2    entry C          line   198 file /home/vdwv/DIPLOM_ITMO/CALCULATIONS_AND_SOFTS/softwares/Psi4_Shenanigans/psi4conda/share/psi4/basis/def2-universal-jkfit.gbs 
    atoms 3, 7   entry O          line   318 file /home/vdwv/DIPLOM_ITMO/CALCULATIONS_AND_SOFTS/softwares/Psi4_Shenanigans/psi4conda/share/psi4/basis/def2-universal-jkfit.gbs 
    atoms 4-6, 8 entry H          line    18 file /home/vdwv/DIPLOM_ITMO/CALCULATIONS_AND_SOFTS/softwares/Psi4_Shenanigans/psi4conda/share/psi4/basis/def2-universal-jkfit.gbs 

  ==> Integral Setup <==

  DFHelper Memory: AOs need 0.009 GiB; user supplied 0.246 GiB. 
  SCF_SUBTYPE=INCORE selected. In-core MEM_DF algorithm will be used.
  Using in-core AOs.

  ==> MemDFJK: Density-Fitted J/K Matrices <==

    J tasked:                   Yes
    K tasked:                   Yes
    wK tasked:                   No
    OpenMP threads:               1
    Memory [MiB]:               251
    Algorithm:                 Core
    Schwarz Cutoff:           1E-12
    Mask sparsity (%):       0.4132
    Fitting Condition:        1E-10

   => Auxiliary Basis Set <=

  Basis Set: (3-21G AUX)
    Blend: DEF2-UNIVERSAL-JKFIT
    Number of shells: 124
    Number of basis functions: 444
    Number of Cartesian functions: 444
    Spherical Harmonics?: false
    Max angular momentum: 4

  Cached 100.0% of DFT collocation blocks in 0.174 [GiB].

  Minimum eigenvalue in the overlap matrix is 1.5138650786E-02.
  Reciprocal condition number of the overlap matrix is 3.8785885837E-03.
    Using symmetric orthogonalization.

  ==> Pre-Iterations <==

  SCF Guess: Superposition of Atomic Densities via on-the-fly atomic UHF (no occupation information).

   -------------------------
    Irrep   Nso     Nmo    
   -------------------------
     A'        34      34 
     A"        10      10 
   -------------------------
    Total      44      44
   -------------------------

  ==> Iterations <==

                           Total Energy        Delta E     RMS |[F,P]|

   @DF-RKS iter SAD:  -225.19542751502385   -2.25195e+02   0.00000e+00 
   @DF-RKS iter   1:  -224.85268158194151    3.42746e-01   5.67511e-02 DIIS/ADIIS
   @DF-RKS iter   2:  -220.04697491725949    4.80571e+00   1.10521e-01 ADIIS
   @DF-RKS iter   3:  -227.28432275779636   -7.23735e+00   3.30824e-02 DIIS/ADIIS
   @DF-RKS iter   4:  -227.33605844008858   -5.17357e-02   3.09786e-02 DIIS/ADIIS
   @DF-RKS iter   5:  -227.78261574462834   -4.46557e-01   7.78509e-03 DIIS/ADIIS
   @DF-RKS iter   6:  -227.80648625445363   -2.38705e-02   3.63390e-03 DIIS/ADIIS
   @DF-RKS iter   7:  -227.81200493316629   -5.51868e-03   6.49284e-04 DIIS/ADIIS
   @DF-RKS iter   8:  -227.81225573506529   -2.50802e-04   7.10606e-05 DIIS
   @DF-RKS iter   9:  -227.81225902127440   -3.28621e-06   1.81066e-05 DIIS
   @DF-RKS iter  10:  -227.81225922269698   -2.01423e-07   1.77619e-06 DIIS
   @DF-RKS iter  11:  -227.81225922468732   -1.99034e-09   1.98561e-07 DIIS
  Energy and wave function converged.


  ==> Post-Iterations <==

   Electrons on quadrature grid:
      Ntotal   =   31.9999816749 ; deviation = -1.833e-05 

    Orbital Energies [Eh]
    ---------------------

    Doubly Occupied:                                                      

       1Ap   -19.075719     2Ap   -19.029980     3Ap   -10.260655  
       4Ap   -10.134955     5Ap    -1.099282     6Ap    -1.015539  
       7Ap    -0.760029     8Ap    -0.599179     9Ap    -0.484174  
       1App   -0.464561    10Ap    -0.454337    11Ap    -0.409498  
       2App   -0.383986    12Ap    -0.372063     3App   -0.300946  
      13Ap    -0.265672  

    Virtual:                                                              

       4App    0.011779    14Ap     0.089842    15Ap     0.140595  
      16Ap     0.174511     5App    0.187890    17Ap     0.223948  
      18Ap     0.308955    19Ap     0.387638     6App    0.683343  
      20Ap     0.716022    21Ap     0.739745     7App    0.807698  
      22Ap     0.813302    23Ap     0.838154    24Ap     0.965940  
      25Ap     0.984068     8App    1.024426    26Ap     1.061337  
      27Ap     1.330266     9App    1.430953    28Ap     1.559342  
      10App    1.586903    29Ap     1.609987    30Ap     1.644799  
      31Ap     1.775439    32Ap     1.968302    33Ap     3.020675  
      34Ap     3.217012  

    Final Occupation by Irrep:
             Ap   App 
    DOCC [    13,    3 ]
    NA   [    13,    3 ]
    NB   [    13,    3 ]

  @DF-RKS Final Energy:  -227.81225922468732

   => Energetics <=

    Nuclear Repulsion Energy =            119.5475845596520799
    One-Electron Energy =                -547.4080454763796979
    Two-Electron Energy =                 223.8420095076899372
    DFT Exchange-Correlation Energy =     -23.7938078156496537
    Empirical Dispersion Energy =           0.0000000000000000
    VV10 Nonlocal Energy =                  0.0000000000000000
    Total Energy =                       -227.8122592246873239

Computation Completed


Properties will be evaluated at   0.000000,   0.000000,   0.000000 [a0]

Properties computed using the SCF density matrix


 Multipole Moments:

 ------------------------------------------------------------------------------------
     Multipole            Electronic (a.u.)      Nuclear  (a.u.)        Total (a.u.)
 ------------------------------------------------------------------------------------

 L = 1.  Multiply by 2.5417464519 to convert [e a0] to [Debye]
 Dipole X            :         -2.4035521            2.2892506           -0.1143016
 Dipole Y            :          2.5061046           -3.0425084           -0.5364039
 Dipole Z            :          0.0000000            0.0000000            0.0000000
 Magnitude           :                                                    0.5484469

 ------------------------------------------------------------------------------------

*** tstop() called on debian at Thu May  7 17:30:44 2026
Module time:
	user time   =       3.81 seconds =       0.06 minutes
	system time =       0.23 seconds =       0.00 minutes
	total time  =          4 seconds =       0.07 minutes
Total time:
	user time   =       3.81 seconds =       0.06 minutes
	system time =       0.23 seconds =       0.00 minutes
	total time  =          4 seconds =       0.07 minutes

    Psi4 stopped on: Thursday, 07 May 2026 05:30PM
    Psi4 wall time for execution: 0:00:04.09

*** Psi4 exiting successfully. Buy a developer a beer!
