
    -----------------------------------------------------------------------
          Psi4: An Open-Source Ab Initio Electronic Structure Package
                               Psi4 1.10 release

                         Git: Rev {} zzzzzzz 


    D. G. A. Smith, L. A. Burns, A. C. Simmonett, R. M. Parrish,
    M. C. Schieber, R. Galvelis, P. Kraus, H. Kruse, R. Di Remigio,
    A. Alenaizan, A. M. James, S. Lehtola, J. P. Misiewicz, M. Scheurer,
    R. A. Shaw, J. B. Schriber, Y. Xie, Z. L. Glick, D. A. Sirianni,
    J. S. O'Brien, J. M. Waldrop, A. Kumar, E. G. Hohenstein,
    B. P. Pritchard, B. R. Brooks, H. F. Schaefer III, A. Yu. Sokolov,
    K. Patkowski, A. E. DePrince III, U. Bozkaya, R. A. King,
    F. A. Evangelista, J. M. Turney, T. D. Crawford, C. D. Sherrill,
    J. Chem. Phys. 152(18) 184108 (2020). https://doi.org/10.1063/5.0006002

                            Additional Code Authors
    E. T. Seidl, C. L. Janssen, E. F. Valeev, M. L. Leininger,
    J. F. Gonthier, R. M. Richard, H. R. McAlexander, M. Saitow, X. Wang,
    P. Verma, M. H. Lechner, A. Jiang, S. Behnle, A. G. Heide,
    M. F. Herbst, D. L. Poole, T. Győri, E. C. Mitchell, J. P. Pederson,
    and A. M. Wallace

             Previous Authors, Complete List of Code Contributors,
                       and Citations for Specific Modules
    https://github.com/psi4/psi4/blob/master/codemeta.json
    https://github.com/psi4/psi4/graphs/contributors
    https://psicode.org/psi4manual/master/introduction.html#citing-psifour

    -----------------------------------------------------------------------


    Psi4 started on: Thursday, 07 May 2026 05:28PM

    Process ID: 8011
    Host:       debian
    PSIDATADIR: /home/vdwv/DIPLOM_ITMO/CALCULATIONS_AND_SOFTS/softwares/Psi4_Shenanigans/psi4conda/share/psi4
    Memory:     500.0 MiB
    Threads:    1
    Addons:     adcc, a̶m̶b̶i̶t̶, b̶s̶e̶, c̶c̶t̶3̶, c̶f̶o̶u̶r̶, c̶h̶e̶m̶p̶s̶2̶, c̶p̶p̶e̶, ddx, dftd3, dftd4,
                dkh, ecpint, einsums, f̶o̶r̶t̶e̶, g̶a̶u̶x̶c̶, gcp, g̶d̶m̶a̶, geometric,
                g̶p̶u̶_̶d̶f̶c̶c̶, i̶n̶t̶e̶g̶r̶a̶t̶o̶r̶x̶x̶, i̶p̶i̶, libefp, m̶d̶i̶, m̶p̶2̶d̶,
                m̶r̶c̶c̶, ooo, o̶p̶e̶n̶f̶e̶r̶m̶i̶o̶n̶p̶s̶i̶4̶, pcmsolver, p̶s̶i̶4̶f̶o̶c̶k̶c̶i̶,
                p̶s̶i̶x̶a̶s̶, r̶e̶s̶p̶, s̶i̶m̶i̶n̶t̶, s̶n̶s̶m̶p̶2̶, v̶2̶r̶d̶m̶_̶c̶a̶s̶s̶c̶f̶

  ==> Input File <==

--------------------------------------------------------------------------
#! Sample DFT/cc-pVDZ CH3COOH computation

memory 600 mb

molecule ch3cooh {
  C1   1.060 -0.916  0.000
  C2   0.000  0.156  0.000
  O3   0.192  1.350  0.000
  H4   2.053 -0.451  0.000
  H5   0.941 -1.558  0.886
  H6   0.941 -1.558 -0.886
  O7  -1.247 -0.381  0.000
  H8  -1.859  0.378  0.000
  units angstrom
}


set basis cc-pVDZ
energy('scf', dft_functional = 'b3lyp')

--------------------------------------------------------------------------

  Memory set to 572.205 MiB by Python driver.

Scratch directory: /tmp/
   => Libint2 <=

    Primary   basis highest AM E, G, H:  6, 6, 3
    Auxiliary basis highest AM E, G, H:  7, 7, 4
    Onebody   basis highest AM E, G, H:  -, -, -
    Solid Harmonics ordering:            Gaussian

*** tstart() called on debian
*** at Thu May  7 17:28:36 2026

   => Loading Basis Set <=

    Name: CC-PVDZ
    Role: ORBITAL
    Keyword: BASIS
    atoms 1-2    entry C          line   138 file /home/vdwv/DIPLOM_ITMO/CALCULATIONS_AND_SOFTS/softwares/Psi4_Shenanigans/psi4conda/share/psi4/basis/cc-pvdz.gbs 
    atoms 3, 7   entry O          line   198 file /home/vdwv/DIPLOM_ITMO/CALCULATIONS_AND_SOFTS/softwares/Psi4_Shenanigans/psi4conda/share/psi4/basis/cc-pvdz.gbs 
    atoms 4-6, 8 entry H          line    22 file /home/vdwv/DIPLOM_ITMO/CALCULATIONS_AND_SOFTS/softwares/Psi4_Shenanigans/psi4conda/share/psi4/basis/cc-pvdz.gbs 


         ---------------------------------------------------------
                                   SCF
               by Justin Turney, Rob Parrish, Andy Simmonett
                          and Daniel G. A. Smith
                              RKS Reference
                        1 Threads,    572 MiB Core
         ---------------------------------------------------------

  ==> Geometry <==

    Molecular point group: cs
    Full point group: Cs

    Geometry (in Angstrom), charge = 0, multiplicity = 1:

       Center              X                  Y                   Z               Mass       
    ------------   -----------------  -----------------  -----------------  -----------------
         C            1.094361068818    -0.968733400253     0.000000000000    12.000000000000
         C            0.034361068818     0.103266599747     0.000000000000    12.000000000000
         O            0.226361068818     1.297266599747     0.000000000000    15.994914619570
         H            2.087361068818    -0.503733400253     0.000000000000     1.007825032230
         H            0.975361068818    -1.610733400253     0.886000000000     1.007825032230
         H            0.975361068818    -1.610733400253    -0.886000000000     1.007825032230
         O           -1.212638931182    -0.433733400253     0.000000000000    15.994914619570
         H           -1.824638931182     0.325266599747     0.000000000000     1.007825032230

  Running in cs symmetry.

  Rotational constants: A =      0.37650  B =      0.31400  C =      0.17689 [cm^-1]
  Rotational constants: A =  11287.04545  B =   9413.39244  C =   5303.15408 [MHz]
  Nuclear repulsion =  120.741645515713742

  Charge       = 0
  Multiplicity = 1
  Electrons    = 32
  Nalpha       = 16
  Nbeta        = 16

  ==> Algorithm <==

  SCF Algorithm Type is DF.
  DIIS enabled.
  MOM disabled.
  Fractional occupation disabled.
  Guess Type is SAD.
  Energy threshold   = 1.00e-06
  Density threshold  = 1.00e-06
  Integral threshold = 1.00e-12

  ==> Primary Basis <==

  Basis Set: CC-PVDZ
    Blend: CC-PVDZ
    Number of shells: 36
    Number of basis functions: 76
    Number of Cartesian functions: 80
    Spherical Harmonics?: true
    Max angular momentum: 2

  ==> DFT Potential <==

   => LibXC <=

    Version 7.0.0
    S. Lehtola, C. Steigemann, M. J.T. Oliveira, and M. A.L. Marques.,  SoftwareX 7, 1–5 (2018) (10.1016/j.softx.2017.11.002)

   => Composite Functional: B3LYP <= 

    B3LYP Hyb-GGA Exchange-Correlation Functional

    P. J. Stephens, F. J. Devlin, C. F. Chabalowski, and M. J. Frisch.,  J. Phys. Chem. 98, 11623 (1994) (10.1021/j100096a001)

    Deriv               =              1
    GGA                 =           TRUE
    Meta                =          FALSE

    Exchange Hybrid     =           TRUE
    MP2 Hybrid          =          FALSE

   => Exchange Functionals <=

    0.0800   Slater exchange
    0.7200         Becke 88

   => Exact (HF) Exchange <=

    0.2000               HF 

   => Correlation Functionals <=

    0.1900   Vosko, Wilk & Nusair (VWN5_RPA)
    0.8100   Lee, Yang & Parr

   => LibXC Density Thresholds  <==

    XC_HYB_GGA_XC_B3LYP:  1.00E-15 

   => Molecular Quadrature <=

    Radial Scheme          =       TREUTLER
    Pruning Scheme         =           NONE
    Nuclear Scheme         =       TREUTLER

    Blocking Scheme        =         OCTREE
    BS radius alpha        =              1
    Pruning alpha          =              1
    Radial Points          =             75
    Spherical Points       =            302
    Total Points           =         172185
    Total Blocks           =           1335
    Max Points             =            256
    Max Functions          =             76
    Weights Tolerance      =       1.00E-15

   => Loading Basis Set <=

    Name: (CC-PVDZ AUX)
    Role: JKFIT
    Keyword: DF_BASIS_SCF
    atoms 1-2    entry C          line   121 file /home/vdwv/DIPLOM_ITMO/CALCULATIONS_AND_SOFTS/softwares/Psi4_Shenanigans/psi4conda/share/psi4/basis/cc-pvdz-jkfit.gbs 
    atoms 3, 7   entry O          line   221 file /home/vdwv/DIPLOM_ITMO/CALCULATIONS_AND_SOFTS/softwares/Psi4_Shenanigans/psi4conda/share/psi4/basis/cc-pvdz-jkfit.gbs 
    atoms 4-6, 8 entry H          line    51 file /home/vdwv/DIPLOM_ITMO/CALCULATIONS_AND_SOFTS/softwares/Psi4_Shenanigans/psi4conda/share/psi4/basis/cc-pvdz-jkfit.gbs 

  ==> Integral Setup <==

  DFHelper Memory: AOs need 0.018 GiB; user supplied 0.082 GiB. 
  SCF_SUBTYPE=INCORE selected. In-core MEM_DF algorithm will be used.
  Using in-core AOs.

  ==> MemDFJK: Density-Fitted J/K Matrices <==

    J tasked:                   Yes
    K tasked:                   Yes
    wK tasked:                   No
    OpenMP threads:               1
    Memory [MiB]:                83
    Algorithm:                 Core
    Schwarz Cutoff:           1E-12
    Mask sparsity (%):       0.0000
    Fitting Condition:        1E-10

   => Auxiliary Basis Set <=

  Basis Set: (CC-PVDZ AUX)
    Blend: CC-PVDZ-JKFIT
    Number of shells: 132
    Number of basis functions: 372
    Number of Cartesian functions: 424
    Spherical Harmonics?: true
    Max angular momentum: 3

  Cached 100.0% of DFT collocation blocks in 0.337 [GiB].

  Minimum eigenvalue in the overlap matrix is 5.0375752558E-03.
  Reciprocal condition number of the overlap matrix is 1.0786845924E-03.
    Using symmetric orthogonalization.

  ==> Pre-Iterations <==

  SCF Guess: Superposition of Atomic Densities via on-the-fly atomic UHF (no occupation information).

   -------------------------
    Irrep   Nso     Nmo    
   -------------------------
     A'        53      53 
     A"        23      23 
   -------------------------
    Total      76      76
   -------------------------

  ==> Iterations <==

                           Total Energy        Delta E     RMS |[F,P]|

   @DF-RKS iter SAD:  -227.25247233834284   -2.27252e+02   0.00000e+00 
    Occupation by irrep:
             Ap   App 
    DOCC [    13,    3 ]
    NA   [    13,    3 ]
    NB   [    13,    3 ]

   @DF-RKS iter   1:  -223.26510489551396    3.98737e+00   4.40563e-02 ADIIS/DIIS
   @DF-RKS iter   2:  -221.37076514420173    1.89434e+00   7.23836e-02 ADIIS/DIIS
   @DF-RKS iter   3:  -227.77773866715830   -6.40697e+00   3.04776e-02 ADIIS/DIIS
   @DF-RKS iter   4:  -228.06000216931344   -2.82264e-01   2.75878e-02 ADIIS/DIIS
   @DF-RKS iter   5:  -229.09104632274085   -1.03104e+00   2.27584e-03 ADIIS/DIIS
   @DF-RKS iter   6:  -229.09756734145262   -6.52102e-03   1.24923e-03 ADIIS/DIIS
   @DF-RKS iter   7:  -229.10013984536414   -2.57250e-03   1.69950e-04 ADIIS/DIIS
   @DF-RKS iter   8:  -229.10018743455151   -4.75892e-05   3.83437e-05 DIIS
   @DF-RKS iter   9:  -229.10018892450563   -1.48995e-06   2.48325e-05 DIIS
   @DF-RKS iter  10:  -229.10018968764439   -7.63139e-07   3.24023e-06 DIIS
   @DF-RKS iter  11:  -229.10018970392838   -1.62840e-08   6.26667e-07 DIIS
  Energy and wave function converged.


  ==> Post-Iterations <==

   Electrons on quadrature grid:
      Ntotal   =   31.9999935590 ; deviation = -6.441e-06 

    Orbital Energies [Eh]
    ---------------------

    Doubly Occupied:                                                      

       1Ap   -19.185685     2Ap   -19.129747     3Ap   -10.319717  
       4Ap   -10.203943     5Ap    -1.104758     6Ap    -1.014653  
       7Ap    -0.758178     8Ap    -0.607404     9Ap    -0.488476  
      10Ap    -0.475655     1App   -0.467347    11Ap    -0.411024  
      12Ap    -0.393138     2App   -0.390800     3App   -0.318472  
      13Ap    -0.274756  

    Virtual:                                                              

       4App    0.009140    14Ap     0.051332    15Ap     0.080680  
      16Ap     0.125141     5App    0.134481    17Ap     0.204142  
      18Ap     0.278262    19Ap     0.303115     6App    0.433530  
      20Ap     0.455920    21Ap     0.499324     7App    0.515346  
      22Ap     0.528364    23Ap     0.561821    24Ap     0.614683  
       8App    0.619774    25Ap     0.645199    26Ap     0.658909  
      27Ap     0.769555    28Ap     0.856602     9App    0.897648  
      29Ap     0.940322    10App    0.943344    30Ap     1.022844  
      31Ap     1.067363    11App    1.083522    12App    1.153164  
      32Ap     1.167761    33Ap     1.295454    13App    1.302466  
      14App    1.390112    15App    1.428861    34Ap     1.480224  
      35Ap     1.567129    36Ap     1.603161    16App    1.623194  
      37Ap     1.627212    38Ap     1.690978    39Ap     1.774856  
      17App    1.817214    40Ap     1.860986    41Ap     1.943766  
      42Ap     2.060000    43Ap     2.089873    18App    2.152086  
      44Ap     2.204409    45Ap     2.268342    46Ap     2.386166  
      19App    2.410010    47Ap     2.480047    20App    2.617308  
      48Ap     2.685202    21App    2.840815    22App    2.914764  
      49Ap     3.074805    23App    3.147097    50Ap     3.152937  
      51Ap     3.422619    52Ap     3.485711    53Ap     3.679182  

    Final Occupation by Irrep:
             Ap   App 
    DOCC [    13,    3 ]
    NA   [    13,    3 ]
    NB   [    13,    3 ]

  @DF-RKS Final Energy:  -229.10018970392838

   => Energetics <=

    Nuclear Repulsion Energy =            120.7416455157137420
    One-Electron Energy =                -551.4354908506213633
    Two-Electron Energy =                 225.4844481441047606
    DFT Exchange-Correlation Energy =     -23.8907925131255290
    Empirical Dispersion Energy =           0.0000000000000000
    VV10 Nonlocal Energy =                  0.0000000000000000
    Total Energy =                       -229.1001897039283790

Computation Completed


Properties will be evaluated at   0.000000,   0.000000,   0.000000 [a0]

Properties computed using the SCF density matrix


 Multipole Moments:

 ------------------------------------------------------------------------------------
     Multipole            Electronic (a.u.)      Nuclear  (a.u.)        Total (a.u.)
 ------------------------------------------------------------------------------------

 L = 1.  Multiply by 2.5417464519 to convert [e a0] to [Debye]
 Dipole X            :         -2.2348049            2.0702974           -0.1645075
 Dipole Y            :          2.5831350           -3.1831847           -0.6000497
 Dipole Z            :          0.0000000            0.0000000            0.0000000
 Magnitude           :                                                    0.6221916

 ------------------------------------------------------------------------------------

*** tstop() called on debian at Thu May  7 17:28:42 2026
Module time:
	user time   =       6.15 seconds =       0.10 minutes
	system time =       0.35 seconds =       0.01 minutes
	total time  =          6 seconds =       0.10 minutes
Total time:
	user time   =       6.15 seconds =       0.10 minutes
	system time =       0.35 seconds =       0.01 minutes
	total time  =          6 seconds =       0.10 minutes

    Psi4 stopped on: Thursday, 07 May 2026 05:28PM
    Psi4 wall time for execution: 0:00:06.59

*** Psi4 exiting successfully. Buy a developer a beer!
