

     ************************************************************************
     *************** Dalton - An Electronic Structure Program ***************
     ************************************************************************

    This is output from DALTON release Dalton2025.0-dev (2025)
         ( Web site: http://daltonprogram.org )

   ----------------------------------------------------------------------------

    NOTE:
     
    Dalton is an experimental code for the evaluation of molecular
    properties using (MC)SCF, DFT, CI, and CC wave functions.
    The authors accept no responsibility for the performance of
    the code or for the correctness of the results.
     
    The code (in whole or part) is provided under a licence and
    is not to be reproduced for further distribution without
    the written permission of the authors or their representatives.
     
    See the home page "http://daltonprogram.org" for further information.
     
    If results obtained with this code are published,
    the appropriate citations would be both of:
     
       K. Aidas, C. Angeli, K. L. Bak, V. Bakken,
       R. Bast, L. Boman, O. Christiansen, R. Cimiraglia,
       S. Coriani, P. Dahle, E. K. Dalskov, U. Ekstroem,
       T. Enevoldsen, J. J. Eriksen, P. Ettenhuber, B. Fernandez,
       L. Ferrighi, H. Fliegl, L. Frediani, K. Hald, A. Halkier,
       C. Haettig, H. Heiberg, T. Helgaker, A. C. Hennum,
       H. Hettema, E. Hjertenaes, S. Hoest, I.-M. Hoeyvik,
       M. F. Iozzi, B. Jansik, H. J. Aa. Jensen, D. Jonsson,
       P. Joergensen, J. Kauczor, S. Kirpekar,
       T. Kjaergaard, W. Klopper, S. Knecht, R. Kobayashi, H. Koch,
       J. Kongsted, A. Krapp, K. Kristensen, A. Ligabue,
       O. B. Lutnaes, J. I. Melo, K. V. Mikkelsen, R. H. Myhre,
       C. Neiss, C. B. Nielsen, P. Norman, J. Olsen,
       J. M. H. Olsen, A. Osted, M. J. Packer, F. Pawlowski,
       T. B. Pedersen, P. F. Provasi, S. Reine, Z. Rinkevicius,
       T. A. Ruden, K. Ruud, V. Rybkin, P. Salek, C. C. M. Samson,
       A. Sanchez de Meras, T. Saue, S. P. A. Sauer,
       B. Schimmelpfennig, K. Sneskov, A. H. Steindal,
       K. O. Sylvester-Hvid, P. R. Taylor, A. M. Teale,
       E. I. Tellgren, D. P. Tew, A. J. Thorvaldsen, L. Thoegersen,
       O. Vahtras, M. A. Watson, D. J. D. Wilson, M. Ziolkowski
       and H. Agren,
       "The Dalton quantum chemistry program system",
       WIREs Comput. Mol. Sci. 2014, 4:269-284 (doi: 10.1002/wcms.1172)
     
    and
     
       Dalton, a molecular electronic structure program,
       Release Dalton2025.0-dev (2025), see http://daltonprogram.org
   ----------------------------------------------------------------------------

    Authors in alphabetical order (Major contribution(s) in parenthesis):

  Kestutis Aidas,              Vilnius University,        Lithuania   (QM/MM)
  Celestino Angeli,            University of Ferrara,     Italy       (NEVPT2)
  Juan J. Aucar,               Northeast National UniversiArgentina   (LRESC, Relativistic Effects on NMR Shieldings and EFG)
  Keld L. Bak,                 UNI-C,                     Denmark     (AOSOPPA, non-adiabatic coupling, magnetic properties)
  Vebjoern Bakken,             University of Oslo,        Norway      (DALTON; geometry optimizer, symmetry detection)
  Radovan Bast,                UiT The Arctic U. of NorwayNorway      (DALTON installation and execution frameworks)
  Pablo Baudin,                University of Valencia,    Spain       (Cholesky excitation energies)
  Linus Boman,                 NTNU,                      Norway      (Cholesky decomposition and subsystems)
  Bruno N. Cabral Tenorio,     Technical Univ. of Denmark,Denmark     (Lanczos-based CC methods)
  Ove Christiansen,            Aarhus University,         Denmark     (CC module)
  Renzo Cimiraglia,            University of Ferrara,     Italy       (NEVPT2)
  Sonia Coriani,               Technical Univ. of Denmark,Denmark     (CC and RESPONS modules)
  Janusz Cukras,               University of Warsaw,      Poland      (MChD in RESPONS)
  Paal Dahle,                  University of Oslo,        Norway      (Parallelization)
  Erik K. Dalskov,             UNI-C,                     Denmark     (SOPPA)
  Thomas Enevoldsen,           Univ. of Southern Denmark, Denmark     (SOPPA)
  Janus J. Eriksen,            Aarhus University,         Denmark     (Polarizable embedding, TDA)
  Rasmus Faber,                Technical Univ. of Denmark,Denmark     (Vib.avg. NMR w. SOPPA, parallel AO-SOPPA, CVS-CC and EOMCC)
  Tobias Fahleson,             KTH Stockholm,             Sweden      (Damped cubic response)
  Berta Fernandez,             U. of Santiago de CompostelSpain       (Doublet spin, ESR in RESPONS)
  Lara Ferrighi,               Aarhus University,         Denmark     (PCM Cubic response)
  Heike Fliegl,                University of Oslo,        Norway      (CCSD(R12))
  Luca Frediani,               UiT The Arctic U. of NorwayNorway      (PCM)
  Emmanuel Fromager,           Univ. Strasbourg,          France      (MC-srDFT)
  Bin Gao,                     UiT The Arctic U. of NorwayNorway      (Gen1Int library)
  Andre S. P. Gomes,           CNRS/Universite de Lille,  France      (Frozen density embedding)
  Christof Haettig,            Ruhr-University Bochum,    Germany     (CC module)
  Kasper Hald,                 Aarhus University,         Denmark     (CC module)
  Asger Halkier,               Aarhus University,         Denmark     (CC module)
  Frederik Beyer Hansen,       University of Copenhagen,  Denmark     (Parallel AO-SOPPA)
  Erik D. Hedegaard,           Univ. of Southern Denmark, Denmark     (Polarizable embedding, QM/MM, and MC-srDFT)
  Hanne Heiberg,               University of Oslo,        Norway      (Geometry analysis, selected one-electron integrals)
  Trygve Helgaker,             University of Oslo,        Norway      (DALTON; ABACUS, ERI, DFT modules, London, and much more)
  Alf Christian Hennum,        University of Oslo,        Norway      (Parity violation)
  Hinne Hettema,               University of Auckland,    New Zealand (Quadratic response in RESPONS; SIRIUS supersymmetry)
  Andreas E. Hillers-Bendtsen, University of Copenhagen,  Denmark     (MP3)
  Eirik Hjertenaes,            NTNU,                      Norway      (Cholesky decomposition)
  Nicolai Machholdt Hoeyer,    Aarhus University,         Denmark     (MP3)
  Pi A. B. Haase,              University of Copenhagen,  Denmark     (Triplet AO-SOPPA)
  Maria Francesca Iozzi,       University of Oslo,        Norway      (RPA)
  Christoph Jacob,             TU Braunschweig            Germany     (Frozen density embedding)
  Brano Jansik,                Technical Univ. of Ostrava Czech Rep.  (DFT cubic response)
  Hans Joergen Aa. Jensen,     Univ. of Southern Denmark, Denmark     (DALTON; SIRIUS, RESPONS, ABACUS, MC-srDFT, and much more)
  Dan Jonsson,                 UiT The Arctic U. of NorwayNorway      (Cubic response in RESPONS module)
  Poul Joergensen,             Aarhus University,         Denmark     (RESPONS, ABACUS, and CC modules)
  Maciej Kaminski,             University of Warsaw,      Poland      (CPPh in RESPONS)
  Joanna Kauczor,              Linkoeping University,     Sweden      (Complex polarization propagator (CPP) module)
  Sheela Kirpekar,             Univ. of Southern Denmark, Denmark     (Mass-velocity & Darwin integrals)
  Frederik Oersted Kjeldal,    Technical Univ. of Denmark,Denmark     (MP3)
  Erik Kjellgren,              Univ. of Southern Denmark, Denmark     (MC-srDFT)
  Wim Klopper,                 KIT Karlsruhe,             Germany     (R12 code in CC, SIRIUS, and ABACUS modules)
  Stefan Knecht,               ETH Zurich,                Switzerland (Parallel CI and MCSCF, MC-srDFT)
  Rika Kobayashi,              Australian National Univ., Australia   (DIIS in CC, London in MCSCF)
  Henrik Koch,                 NTNU,                      Norway      (CC module, Cholesky decomposition)
  Jacob Kongsted,              Univ. of Southern Denmark, Denmark     (Polarizable embedding, polarizable density embedding, QM/MM)
  Andrea Ligabue,              University of Modena,      Italy       (CTOCD, AOSOPPA)
  Nanna H. List,               Univ. of Southern Denmark, Denmark     (Polarizable embedding)
  Ola B. Lutnaes,              University of Oslo,        Norway      (DFT Hessian)
  Juan I. Melo,                University of Buenos Aires,Argentina   (LRESC, Relativistic Effects on NMR Shieldings)
  Kurt V. Mikkelsen,           University of Copenhagen,  Denmark     (MC-SCRF, QM/MM, and MP3)
  Rolf H. Myhre,               NTNU,                      Norway      (Subsystems and CC3)
  Christian Neiss,             Univ. Erlangen-Nuernberg,  Germany     (CCSD(R12))
  Christian B. Nielsen,        University of Copenhagen,  Denmark     (QM/MM)
  Patrick Norman,              KTH Stockholm,             Sweden      (Cubic response and complex frequency response in RESPONS)
  Jeppe Olsen,                 Aarhus University,         Denmark     (SIRIUS CI/density modules)
  Jogvan Magnus H. Olsen,      Aarhus University,         Denmark     (Polarizable embedding and polarizable density embedding)
  Anders Osted,                Copenhagen University,     Denmark     (QM/MM)
  Martin J. Packer,            University of Sheffield,   UK          (SOPPA)
  Filip Pawlowski,             Kazimierz Wielki UniversityPoland      (CC3)
  Morten N. Pedersen,          Univ. of Southern Denmark, Denmark     (Polarizable embedding)
  Thomas B. Pedersen,          University of Oslo,        Norway      (Cholesky decomposition)
  Patricio F. Provasi,         University of Northeastern,Argentina   (Analysis of coupling constants in localized orbitals)
  Peter Reinholdt,             Univ. of Southern Denmark, Denmark     (Polarizable embedding and polarizable density embedding)
  Zilvinas Rinkevicius,        KTH Stockholm,             Sweden      (open-shell DFT, ESR)
  Elias Rudberg,               KTH Stockholm,             Sweden      (DFT grid and basis info)
  Torgeir A. Ruden,            University of Oslo,        Norway      (Numerical derivatives in ABACUS)
  Kenneth Ruud,                UiT The Arctic U. of NorwayNorway      (DALTON; ABACUS magnetic properties and much more)
  Pawel Salek,                 KTH Stockholm,             Sweden      (DALTON; DFT code)
  Claire C. M. Samson,         University of Karlsruhe    Germany     (Boys localization, r12 integrals in ERI)
  Alfredo Sanchez de Meras,    University of Valencia,    Spain       (CC module, Cholesky decomposition)
  Trond Saue,                  Paul Sabatier University,  France      (direct Fock matrix construction)
  Stephan P. A. Sauer,         University of Copenhagen,  Denmark     (SOPPA(CCSD), SOPPA prop., AOSOPPA, vibrational g-factors)
  Bernd Schimmelpfennig,       Forschungszentrum KarlsruheGermany     (AMFI module)
  Anna K. Schnack-Petersen,    University of Copenhagen,  Denmark     (RPA(D) and HRPA(D) properties in AOSOPPA)
  Kristian Sneskov,            Aarhus University,         Denmark     (Polarizable embedding, QM/MM)
  Arnfinn H. Steindal,         UiT The Arctic U. of NorwayNorway      (parallel QM/MM, polarizable embedding)
  Casper Steinmann,            Aalborg University,        Denmark     (QFIT, polarizable embedding)
  K. O. Sylvester-Hvid,        University of Copenhagen,  Denmark     (MC-SCRF)
  Peter R. Taylor,             VLSCI/Univ. of Melbourne,  Australia   (Symmetry handling ABACUS, integral transformation)
  Andrew M. Teale,             University of Nottingham,  England     (DFT-AC, DFT-D)
  David P. Tew,                University of Bristol,     England     (CCSD(R12))
  Julien Toulouse,             Sorbonne Univ.,            France      (MC-srDFT)
  Olav Vahtras,                KTH Stockholm,             Sweden      (Triplet response, spin-orbit, ESR, TDDFT, open-shell DFT)
  Lucas Visscher,              Vrije Universiteit AmsterdaNetherlands (Frozen density embedding)
  David J. Wilson,             La Trobe University,       Australia   (DFT Hessian and DFT magnetizabilities)
  Luna Zamok,                  University of Copenhagen,  Denmark     (Block Lanczos RPA solver in SOPPA module)
  Hans Agren,                  KTH Stockholm,             Sweden      (SIRIUS module, RESPONS, MC-SCRF solvation)
 --------------------------------------------------------------------------------

     Date and time (Linux)  : Thu May  7 17:02:05 2026
     Host name              : debian                                  

 * Work memory size             :    64000000 =  488.28 megabytes.

 * Directories for basis set searches:
   1) /home/vdwv/DIPLOM_ITMO/CALCULATIONS_AND_SOFTS/softwares/Dalton_Shenanigans/dalton/dalton/build/diplom_files/ccl2o/dft/ccl2o_dft_b3lyp_3-21g
   2) /home/vdwv/DIPLOM_ITMO/CALCULATIONS_AND_SOFTS/softwares/Dalton_Shenanigans/dalton/dalton/build/basis


Compilation information
-----------------------

 Who compiled             | vdwv
 Host                     | debian
 System                   | Linux-6.12.73+deb13-amd64
 CMake generator          | Unix Makefiles
 Processor                | x86_64
 64-bit integers          | OFF
 MPI                      | OFF
 Fortran compiler         | /usr/bin/gfortran
 Fortran compiler version | GNU Fortran (Debian 14.2.0-19) 14.2.0
 C compiler               | /usr/bin/gcc
 C compiler version       | gcc (Debian 14.2.0-19) 14.2.0
 C++ compiler             | /usr/bin/g++
 C++ compiler version     | g++ (Debian 14.2.0-19) 14.2.0
 BLAS                     | /opt/intel/oneapi/mkl/2025.3/lib/intel64/libmkl_gf
                          | _lp64.so;/opt/intel/oneapi/mkl/2025.3/lib/intel64/
                          | libmkl_sequential.so;/opt/intel/oneapi/mkl/2025.3/
                          | lib/intel64/libmkl_core.so;/usr/lib/x86_64-linux-g
                          | nu/libpthread.a;/usr/lib/x86_64-linux-gnu/libm.so
 LAPACK                   | /opt/intel/oneapi/mkl/2025.3/lib/intel64/libmkl_la
                          | pack95_lp64.a;/opt/intel/oneapi/mkl/2025.3/lib/int
                          | el64/libmkl_gf_lp64.so
 Static linking           | OFF
 Last Git revision        | 1892235f9264b9be21ec2fefe6e0081d659ab244
 Git branch               | master
 Configuration time       | 2026-05-04 17:50:26.788788

 * Sequential calculation.


   Content of the .dal input file
 ----------------------------------

BASIS
3-21G
Phosgene CCl2O using the 3-21G basis
Using automatic symmetry detection
AtomTypes=3 Angstrom
Charge=8.0 Atoms=1
O      0.000      0.000      1.761
Charge=6.0 Atoms=1
C      0.000      0.000      0.576
Charge=17.0 Atoms=2
Cl1    0.000      1.511     -0.516
Cl2    0.000     -1.511     -0.516

**DALTON INPUT
.RUN WAVE FUN
**WAVE FUN
.DFT
 B3LYP
**END OF



       *******************************************************************
       *********** Output from DALTON general input processing ***********
       *******************************************************************

 --------------------------------------------------------------------------------
   Overall default print level:    0
   Print level for DALTON.STAT:    1

    HERMIT 1- and 2-electron integral sections will be executed
    "Old" integral transformation used (limited to max 255 basis functions)
    Wave function sections will be executed (SIRIUS module)
 --------------------------------------------------------------------------------


   ****************************************************************************
   *************** Output of molecule and basis set information ***************
   ****************************************************************************


    The two title cards from your ".mol" input:
    --------------------------------------------------------------------------------
 1: Phosgene CCl2O using the 3-21G basis
 2: Using automatic symmetry detection
    --------------------------------------------------------------------------------

  Coordinates are entered in Angstrom and converted to atomic units.
          - Conversion factor : 1 bohr = 0.52917721080 A

  Atomic type no.    1
  --------------------
  Nuclear charge:   8.00000
  Number of symmetry independent centers:    1
  Number of basis sets to read;    2
  Basis set file used for this atomic type with Z =   8 :
     "/home/vdwv/DIPLOM_ITMO/CALCULATIONS_AND_SOFTS/softwares/Dalton_Shenanigans/dalton/dalton/build/basis/3-21G"

  Info about the basis set file: your basis has no documentation.
  Basis set: 3-21G                                                                           

  Atomic type no.    2
  --------------------
  Nuclear charge:   6.00000
  Number of symmetry independent centers:    1
  Number of basis sets to read;    2
  Basis set file used for this atomic type with Z =   6 :
     "/home/vdwv/DIPLOM_ITMO/CALCULATIONS_AND_SOFTS/softwares/Dalton_Shenanigans/dalton/dalton/build/basis/3-21G"

  Info about the basis set file: your basis has no documentation.
  Basis set: 3-21G                                                                           

  Atomic type no.    3
  --------------------
  Nuclear charge:  17.00000
  Number of symmetry independent centers:    2
  Number of basis sets to read;    2
  Basis set file used for this atomic type with Z =  17 :
     "/home/vdwv/DIPLOM_ITMO/CALCULATIONS_AND_SOFTS/softwares/Dalton_Shenanigans/dalton/dalton/build/basis/3-21G"

  Info about the basis set file: your basis has no documentation.
  Basis set: 3-21G                                                                           


                      SYMADD: Addition of symmetry requested
                      --------------------------------------

 Symmetry test threshold:  5.00E-06

@  The molecule has been centered at center of mass and rotated
@  so the principal axes of inertia are along coordinate axes.

 Symmetry class found: C(2v)          

 Symmetry Independent Centres             
 ----------------------------
Cl2   17 :      0.00000000     2.85537617     0.95563248  Isotope  1
O      8 :      0.00000000     0.00000000    -3.34727391  Isotope  1
C      6 :      0.00000000     0.00000000    -1.10794845  Isotope  1

 The following symmetry elements were found:   X  Y     


                         SYMGRP: Point group information
                         -------------------------------

@    Full point group is: C(2v)          
@    Represented as:      C2v

@  * The irrep name for each symmetry:    1: A1     2: B1     3: B2     4: A2 

   * The point group was generated by:

      Reflection in the yz-plane
      Reflection in the xz-plane

   * Group multiplication table

        |  E   C2z  Oxz  Oyz
   -----+--------------------
     E  |  E   C2z  Oxz  Oyz
    C2z | C2z   E   Oyz  Oxz
    Oxz | Oxz  Oyz   E   C2z
    Oyz | Oyz  Oxz  C2z   E 

   * Character table

        |  E   C2z  Oxz  Oyz
   -----+--------------------
    A1  |   1    1    1    1
    B1  |   1   -1    1   -1
    B2  |   1   -1   -1    1
    A2  |   1    1   -1   -1

   * Direct product table

        | A1   B1   B2   A2 
   -----+--------------------
    A1  | A1   B1   B2   A2 
    B1  | B1   A1   A2   B2 
    B2  | B2   A2   A1   B1 
    A2  | A2   B2   B1   A1 


                                 Isotopic Masses
                                 ---------------

                           O          15.994915
                           C          12.000000
                           Cl2 _1     34.968853
                           Cl2 _2     34.968853

                       Total mass:    97.932621 amu
                       Natural abundance:  56.643 %

 Center-of-mass coordinates (a.u.):    0.000000    0.000000   -0.000000
 Center-of-mass coordinates (Angs):    0.000000    0.000000   -0.000000


  Atoms and basis sets
  --------------------

  Number of atom types :    3
  Total number of atoms:    4

  Basis set used is "3-21G" from the basis set library.

  label    atoms   charge   prim   cont     basis
  ----------------------------------------------------------------------
  O           1    8.0000    15     9      [6s3p|3s2p]                                        
  C           1    6.0000    15     9      [6s3p|3s2p]                                        
  Cl          2   17.0000    27    13      [9s6p|4s3p]                                        
  ----------------------------------------------------------------------
  total:      4   48.0000    84    44
  ----------------------------------------------------------------------
  Spherical harmonic basis used.

  Threshold for neglecting AO integrals:  1.00D-12


  Cartesian Coordinates (bohr)
  ----------------------------

  Total number of coordinates:   12
  O       :     1  x   0.0000000000    2  y   0.0000000000    3  z  -3.3472739110
  C       :     4  x   0.0000000000    5  y   0.0000000000    6  z  -1.1079484529
  Cl2 / 1 :     7  x   0.0000000000    8  y   2.8553761749    9  z   0.9556324756
  Cl2 / 2 :    10  x   0.0000000000   11  y  -2.8553761749   12  z   0.9556324756


  Cartesian Coordinates (xyz format; angstrom)
  --------------------------------------------

    4

  O        0.0000000000            0.0000000000           -1.7713010720
  C        0.0000000000            0.0000000000           -0.5863010720
 Cl        0.0000000000            1.5110000000            0.5056989280
 Cl        0.0000000000           -1.5110000000            0.5056989280


  Symmetry Coordinates
  --------------------

  Number of coordinates in each symmetry:     4    3    4    1

  Symmetry  A1  ( 1)

    1   O     z    3
    2   C     z    6
    3   Cl2   y    [  8  -   11 ]/2
    4   Cl2   z    [  9  +   12 ]/2

  Symmetry  B1  ( 2)

    5   O     x    1
    6   C     x    4
    7   Cl2   x    [  7  +   10 ]/2

  Symmetry  B2  ( 3)

    8   O     y    2
    9   C     y    5
   10   Cl2   y    [  8  +   11 ]/2
   11   Cl2   z    [  9  -   12 ]/2

  Symmetry  A2  ( 4)

   12   Cl2   x    [  7  -   10 ]/2


   Interatomic separations (in Angstrom):
   --------------------------------------

            O           C           Cl2 _1      Cl2 _2
            ------      ------      ------      ------
 O     :    0.000000
 C     :    1.185000    0.000000
 Cl2 _1:    2.732737    1.864292    0.000000
 Cl2 _2:    2.732737    1.864292    3.022000    0.000000


  Max    interatomic separation is    3.0220 Angstrom (    5.7108 Bohr)
  between atoms    4 and    3, "Cl2 _2" and "Cl2 _1".

  Min YX interatomic separation is    1.1850 Angstrom (    2.2393 Bohr)


  Bond distances (Angstrom):
  --------------------------

                  atom 1     atom 2       distance
                  ------     ------       --------
  bond distance:  C          O            1.185000
  bond distance:  Cl2 _1     C            1.864292
  bond distance:  Cl2 _2     C            1.864292


  Bond angles (degrees):
  ----------------------

                  atom 1     atom 2     atom 3         angle
                  ------     ------     ------         -----
  bond angle:     O          C          Cl2 _1       125.856
  bond angle:     O          C          Cl2 _2       125.856
  bond angle:     Cl2 _1     C          Cl2 _2       108.289




 Principal moments of inertia (u*A**2) and principal axes
 --------------------------------------------------------

   IA      72.194421          0.000000    1.000000    0.000000
   IB     159.676245          0.000000    0.000000    1.000000
   IC     231.870666          1.000000    0.000000    0.000000


 Rotational constants
 --------------------

@    The molecule is planar.

               A                   B                   C

           7000.2502           3165.0231           2179.5728 MHz
            0.233503            0.105574            0.072703 cm-1


@  Nuclear repulsion energy :  182.617570862313 Hartree


  Symmetry Orbitals
  -----------------

  Number of orbitals in each symmetry:          20    7   14    3


  Symmetry  A1 ( 1)

    1     O        1s         1
    2     O        1s         2
    3     O        1s         3
    4     O        2pz        6
    5     O        2pz        9
    6     C        1s        10
    7     C        1s        11
    8     C        1s        12
    9     C        2pz       15
   10     C        2pz       18
   11     Cl2      1s        19 +   20
   12     Cl2      1s        21 +   22
   13     Cl2      1s        23 +   24
   14     Cl2      1s        25 +   26
   15     Cl2      2py       29 -   30
   16     Cl2      2pz       31 +   32
   17     Cl2      2py       35 -   36
   18     Cl2      2pz       37 +   38
   19     Cl2      2py       41 -   42
   20     Cl2      2pz       43 +   44


  Symmetry  B1 ( 2)

   21     O        2px        4
   22     O        2px        7
   23     C        2px       13
   24     C        2px       16
   25     Cl2      2px       27 +   28
   26     Cl2      2px       33 +   34
   27     Cl2      2px       39 +   40


  Symmetry  B2 ( 3)

   28     O        2py        5
   29     O        2py        8
   30     C        2py       14
   31     C        2py       17
   32     Cl2      1s        19 -   20
   33     Cl2      1s        21 -   22
   34     Cl2      1s        23 -   24
   35     Cl2      1s        25 -   26
   36     Cl2      2py       29 +   30
   37     Cl2      2pz       31 -   32
   38     Cl2      2py       35 +   36
   39     Cl2      2pz       37 -   38
   40     Cl2      2py       41 +   42
   41     Cl2      2pz       43 -   44


  Symmetry  A2 ( 4)

   42     Cl2      2px       27 -   28
   43     Cl2      2px       33 -   34
   44     Cl2      2px       39 -   40

  Symmetries of electric field:  B1 (2)  B2 (3)  A1 (1)

  Symmetries of magnetic field:  B2 (3)  B1 (2)  A2 (4)


                     .---------------------------------------.
                     | Starting in Integral Section (HERMIT) |
                     `---------------------------------------'



 ***************************************************************************************
 ****************** Output from **INTEGRALS input processing (HERMIT) ******************
 ***************************************************************************************


 - Using defaults, no **INTEGRALS input found

 Default print level:        1

 Calculation of one- and two-electron Hamiltonian integrals.

 Center of mass  (bohr):      0.000000000000      0.000000000000     -0.000000000000
 Operator center (bohr):      0.000000000000      0.000000000000      0.000000000000
 Gauge origin    (bohr):      0.000000000000      0.000000000000     -0.000000000000
 Dipole origin   (bohr):      0.000000000000      0.000000000000     -0.000000000000

Calculation of 2-electron integrals are postponed until they are needed.


     ************************************************************************
     ************************** Output from HERINT **************************
     ************************************************************************



                      Nuclear contribution to dipole moments
                      --------------------------------------

                 au               Debye          C m (/(10**-30)

      z     -0.93437783        -2.37495141        -7.92198519


  Total CPU  time used in HERMIT:   0.02 seconds
  Total wall time used in HERMIT:   0.02 seconds


                        .----------------------------------.
                        | End of Integral Section (HERMIT) |
                        `----------------------------------'



                   .--------------------------------------------.
                   | Starting in Wave Function Section (SIRIUS) |
                   `--------------------------------------------'


 *** Output from Huckel module :

     Using EWMO model:          F
     Using EHT  model:          T
     Number of Huckel orbitals each symmetry:   16    6   12    4

 Huckel EHT eigenvalues for symmetry :  1
         -104.886025     -20.707286     -11.370760     -10.616266      -8.073449
           -8.072298      -1.495819      -1.206753      -0.768647      -0.593978
           -0.510684      -0.331934      -0.199160      -0.056329      -0.053202
           -0.035340

 Huckel EHT eigenvalues for symmetry :  2
           -8.072377      -0.698512      -0.529651      -0.320990      -0.056244
           -0.050454

 Huckel EHT eigenvalues for symmetry :  3
         -104.886250     -10.615674      -8.073030      -8.072070      -1.127851
           -0.679698      -0.499161      -0.464685      -0.253903      -0.054891
           -0.051756      -0.047239

 Huckel EHT eigenvalues for symmetry :  4
           -8.072196      -0.492871      -0.055296      -0.053933

HUCDRV: reduced number of huckel orbitals in sym 4 from 4 to 3

 **********************************************************************
 *SIRIUS* a direct, restricted step, second order MCSCF program       *
 **********************************************************************

 
     Date and time (Linux)  : Thu May  7 17:02:05 2026
     Host name              : debian                                  

 Title lines from ".mol" input file:
     Phosgene CCl2O using the 3-21G basis
     Using automatic symmetry detection

 Print level on unit LUPRI =   2 is   0
 Print level on unit LUW4  =   2 is   5

@    Restricted, closed shell Kohn-Sham DFT calculation.

 Initial molecular orbitals are obtained according to
 ".MOSTART EHT   " input option

     Wave function specification
     ============================
@    Wave function type        --- KS-DFT ---
@    Number of closed shell electrons          48
@    Number of electrons in active shells       0
@    Total charge of the molecule               0

@    Spin multiplicity and 2 M_S                1         0
@    Total number of symmetries                 4 (point group: C2v)
@    Reference state symmetry                   1 (irrep name : A1 )
 
     This is a DFT calculation of type: B3LYP
 Weighted mixed functional:
               HF exchange:    0.20000
                       VWN:    0.19000
                       LYP:    0.81000
                     Becke:    0.72000
                    Slater:    0.80000

     Orbital specifications
     ======================
@    Abelian symmetry species          All |    1    2    3    4
@                                          |  A1   B1   B2   A2 
                                       --- |  ---  ---  ---  ---
@    Total number of orbitals           44 |   20    7   14    3
@    Number of basis functions          44 |   20    7   14    3

      ** Automatic occupation of RKS orbitals **

      -- Initial occupation of symmetries is determined from extended Huckel guess.           
      -- Initial occupation of symmetries is :
@    Occupied SCF orbitals              24 |   11    3    8    2

     Maximum number of Fock   iterations      0
     Maximum number of DIIS   iterations     60
     Maximum number of QC-SCF iterations     60
     Threshold for SCF convergence     1.00D-05
 
     This is a DFT calculation of type: B3LYP
 Weighted mixed functional:
               HF exchange:    0.20000
                       VWN:    0.19000
                       LYP:    0.81000
                     Becke:    0.72000
                    Slater:    0.80000


 ***********************************************
 ***** DIIS acceleration of SCF iterations *****
 ***********************************************

 C1-DIIS algorithm; max error vectors =    8

 Automatic occupation of symmetries with  48 electrons.

 Iter     Total energy    Error norm  Delta(E)    SCF occupation
 -----------------------------------------------------------------------------

---> (Re)generating AOTWOINT


     ************************************************************************
     ************************** Output from HERINT **************************
     ************************************************************************


***  INFO  GETGAB: GABSO--- not found on AOGABINT. Regenerating.

 Threshold for neglecting two-electron integrals:  1.00D-12
 HERMIT - Number of two-electron integrals written:      111584 ( 22.7% )
 HERMIT - Megabytes written:                              1.373

      K-S energy, electrons, error :    -56.464486902382  47.9999900301   -9.97D-06
@  1  -1027.93056023       3.55D+00  -1.03D+03    11   3   8   2
      Virial theorem: -V/T =      2.001245
@    MULPOP   O      -0.61; C       0.75; Cl2 _1 -0.07; Cl2 _2 -0.07; 
   1  Level shift: doubly occupied orbital energies shifted by -2.00D-01
 -----------------------------------------------------------------------------
      K-S energy, electrons, error :    -56.373577856720  47.9999903636   -9.64D-06
@  2  -1027.81340058       3.80D+00   1.17D-01    11   3   8   2
      Virial theorem: -V/T =      2.002943
@    MULPOP   O       0.95; C      -1.39; Cl2 _1  0.22; Cl2 _2  0.22; 
   2  Level shift: doubly occupied orbital energies shifted by -2.00D-01
 -----------------------------------------------------------------------------
      K-S energy, electrons, error :    -56.525669267138  47.9999902629   -9.74D-06
@  3  -1028.45980164       7.57D-01  -6.46D-01    11   3   8   2
      Virial theorem: -V/T =      2.002481
@    MULPOP   O      -0.44; C       0.06; Cl2 _1  0.19; Cl2 _2  0.19; 
   3  Level shift: doubly occupied orbital energies shifted by -5.00D-02
 -----------------------------------------------------------------------------
      K-S energy, electrons, error :    -56.434467457652  47.9999901306   -9.87D-06
@  4  -1028.47065134       4.25D-01  -1.08D-02    11   3   8   2
      Virial theorem: -V/T =      2.003163
@    MULPOP   O      -0.31; C       0.31; Cl2 _1  0.00; Cl2 _2  0.00; 
   4  Level shift: doubly occupied orbital energies shifted by -5.00D-02
 -----------------------------------------------------------------------------
      K-S energy, electrons, error :    -56.435166753953  47.9999902175   -9.78D-06
@  5  -1028.48279447       9.67D-02  -1.21D-02    11   3   8   2
      Virial theorem: -V/T =      2.003360
@    MULPOP   O      -0.33; C       0.10; Cl2 _1  0.12; Cl2 _2  0.12; 
   5  Level shift: doubly occupied orbital energies shifted by -1.25D-02
 -----------------------------------------------------------------------------
      K-S energy, electrons, error :    -56.448419767861  47.9999902121   -9.79D-06
@  6  -1028.48337097       1.26D-02  -5.76D-04    11   3   8   2
      Virial theorem: -V/T =      2.003148
@    MULPOP   O      -0.30; C       0.09; Cl2 _1  0.11; Cl2 _2  0.11; 
 -----------------------------------------------------------------------------
      K-S energy, electrons, error :    -56.444256235031  47.9999902106   -9.79D-06
@  7  -1028.48338064       5.60D-03  -9.67D-06    11   3   8   2
      Virial theorem: -V/T =      2.003198
@    MULPOP   O      -0.30; C       0.09; Cl2 _1  0.10; Cl2 _2  0.10; 
 -----------------------------------------------------------------------------
      K-S energy, electrons, error :    -56.444853726182  47.9999902111   -9.79D-06
@  8  -1028.48338237       3.80D-04  -1.73D-06    11   3   8   2
      Virial theorem: -V/T =      2.003193
@    MULPOP   O      -0.30; C       0.09; Cl2 _1  0.11; Cl2 _2  0.11; 
 -----------------------------------------------------------------------------
      K-S energy, electrons, error :    -56.444821153384  47.9999902111   -9.79D-06
@  9  -1028.48338238       3.44D-05  -1.11D-08    11   3   8   2
      Virial theorem: -V/T =      2.003194
@    MULPOP   O      -0.30; C       0.09; Cl2 _1  0.11; Cl2 _2  0.11; 
 -----------------------------------------------------------------------------
      K-S energy, electrons, error :    -56.444823034874  47.9999902111   -9.79D-06
@ 10  -1028.48338238       5.71D-06  -7.78D-11    11   3   8   2

@ *** DIIS converged in  10 iterations !
@     Converged SCF energy, gradient:  -1028.483382383373    5.71D-06
    - total time used in SIRFCK :              0.06 seconds


 *** SCF orbital energy analysis ***

 Number of electrons        :   48
 Closed shell orbitals      :   11    3    8    2

 Sym       Kohn-Sham orbital energies

1 A1   -100.85760879   -19.14575511   -10.36344548    -9.42719238    -7.20202247
         -7.18864888    -1.17531173    -0.90056514    -0.60111794    -0.50638016
         -0.37223189    -0.09583914     0.26084052     0.43809234     0.53032562
          0.58406095     0.79392552     1.32783361     1.48489262     2.98616794

2 B1     -7.18991606    -0.49687303    -0.36023608    -0.07701734     0.53278485
          0.68055958     1.44165963

3 B2   -100.85789261    -9.42829319    -7.20210639    -7.18888062    -0.85480073
         -0.52544519    -0.34867686    -0.33265048     0.04599852     0.49487660
          0.57841505     0.74171577     0.84192211     1.55320951

4 A2     -7.19003748    -0.35133299     0.58881672

    E(LUMO) :    -0.09583914 au (symmetry 1)
  - E(HOMO) :    -0.33265048 au (symmetry 3)
  ------------------------------------------
    gap     :     0.23681134 au

 --- Writing SIRIFC interface file

--------------------------------------------------------------------------------


     .-----------------------------------------------.
     | DFT KT IPs [a.u. & eV] from Koopmans' theorem |
     `-----------------------------------------------'


     DFT KT symmetry 1 ( A1 ) in point group C2v -- 11 principal poles with pole strength 1

   ============  ============  ============  ============  ============
     100.857609     19.145755     10.363445      9.427192      7.202022
    2744.475143    520.982498    282.003697    256.526954    195.977001
   ============  ============  ============  ============  ============

   ============  ============  ============  ============  ============
       7.188649      1.175312      0.900565      0.601118      0.506380
     195.613087     31.981859     24.505624     16.357251     13.779305
   ============  ============  ============  ============  ============

   ============
       0.372232
      10.128945
   ============

     DFT KT symmetry 2 ( B1 ) in point group C2v -- 3 principal poles with pole strength 1

   ============  ============  ============
       7.189916      0.496873      0.360236
     195.647568     13.520603      9.802522
   ============  ============  ============

     DFT KT symmetry 3 ( B2 ) in point group C2v -- 8 principal poles with pole strength 1

   ============  ============  ============  ============  ============
     100.857893      9.428293      7.202106      7.188881      0.854801
    2744.482866    256.556909    195.979284    195.619393     23.260311
   ============  ============  ============  ============  ============

   ============  ============  ============
       0.525445      0.348677      0.332650
      14.298091      9.487980      9.051880
   ============  ============  ============

     DFT KT symmetry 4 ( A2 ) in point group C2v -- 2 principal poles with pole strength 1

   ============  ============
       7.190037      0.351333
     195.650872      9.560257
   ============  ============

@ Summary of DFT KT ionization potentials [eV]:

@ Symmetry 1 (A1 ) :  2744.475     520.982     282.004     256.527     195.977
@                      195.613      31.982      24.506      16.357      13.779
@                       10.129

@ Symmetry 2 (B1 ) :   195.648      13.521       9.803

@ Symmetry 3 (B2 ) :  2744.483     256.557     195.979     195.619      23.260
@                       14.298       9.488       9.052

@ Symmetry 4 (A2 ) :   195.651       9.560

  === End of DFT KT output ===
--------------------------------------------------------------------------------


 CPU and wall time for SCF :       2.533       2.533


                       .-----------------------------------.
                       | --- Final results from SIRIUS --- |
                       `-----------------------------------'


@    Spin multiplicity:           1
@    Spatial symmetry:            1 ( irrep  A1  in C2v )
@    Total charge of molecule:    0

@    Final DFT energy:          -1028.483382383373                 
@    Nuclear repulsion:           182.617570862313
@    Electronic energy:         -1211.100953245686

@    Final gradient norm:           0.000005710028

 
     Date and time (Linux)  : Thu May  7 17:02:07 2026
     Host name              : debian                                  

File label for MO orbitals:   7May26   FOCKDIIS

 (Only coefficients > 0.0100 are printed.)

 Molecular orbitals for symmetry species 1  (A1 )
 ------------------------------------------------

    Orbital         1        2        3        4        5        6        7
   1 O   :1s    -0.0000   0.9826   0.0003   0.0001  -0.0000  -0.0000  -0.2077
   2 O   :1s    -0.0001   0.1064   0.0009   0.0006  -0.0001   0.0001   0.2016
   3 O   :1s     0.0009  -0.0587  -0.0041  -0.0051   0.0035   0.0016   0.6359
   4 O   :2pz    0.0000   0.0047  -0.0014  -0.0002   0.0003   0.0002   0.1662
   5 O   :2pz    0.0002  -0.0159  -0.0060  -0.0014   0.0002   0.0001   0.1499
   6 C   :1s     0.0000   0.0004   0.9854   0.0001  -0.0006   0.0001  -0.1298
   7 C   :1s     0.0000   0.0012   0.1049  -0.0008  -0.0023   0.0011   0.1430
   8 C   :1s    -0.0022   0.0216  -0.0498   0.0157  -0.0057  -0.0039   0.1346
   9 C   :2pz   -0.0002  -0.0021  -0.0008   0.0008  -0.0007  -0.0002  -0.1830
  10 C   :2pz    0.0006  -0.0209  -0.0143  -0.0024   0.0061   0.0029   0.0800
  11 Cl2 :1s     0.6971   0.0000   0.0000  -0.2158  -0.0023  -0.0000   0.0045
  12 Cl2 :1s     0.0378  -0.0000  -0.0002   0.6909   0.0076   0.0002  -0.0251
  13 Cl2 :1s    -0.0127   0.0005  -0.0030   0.1063  -0.0000  -0.0014   0.0330
  14 Cl2 :1s     0.0062   0.0008   0.0134  -0.0421  -0.0009   0.0022  -0.0072
  15 Cl2 :2py   -0.0000   0.0000   0.0001  -0.0056   0.5597  -0.3977   0.0064
  16 Cl2 :2pz   -0.0001   0.0000   0.0000  -0.0038   0.3973   0.5601   0.0065
  17 Cl2 :2py    0.0001  -0.0001  -0.0008  -0.0013   0.0515  -0.0352  -0.0111
  18 Cl2 :2pz    0.0003  -0.0003  -0.0003  -0.0021   0.0371   0.0502  -0.0100
  19 Cl2 :2py   -0.0002  -0.0020  -0.0080   0.0020  -0.0143   0.0091   0.0190
  20 Cl2 :2pz   -0.0007   0.0021  -0.0045   0.0048  -0.0128  -0.0151  -0.0053

    Orbital         8        9       10       11       12       13       14
   1 O   :1s     0.0517   0.0965  -0.0973  -0.0054   0.0168  -0.1268   0.0314
   2 O   :1s    -0.0540  -0.0953   0.0820  -0.0028  -0.0230   0.0583  -0.0242
   3 O   :1s    -0.1595  -0.3614   0.4152   0.0983  -0.1000   1.6135  -0.2971
   4 O   :2pz   -0.0147   0.1688  -0.3849   0.0873  -0.1191   0.2017  -0.0872
   5 O   :2pz   -0.0156   0.1387  -0.3370   0.1181  -0.1516   0.6869  -0.2191
   6 C   :1s    -0.0722  -0.1579   0.0106   0.0044  -0.1582   0.0331  -0.0605
   7 C   :1s     0.0677   0.1770  -0.0512   0.0036   0.1337   0.0283   0.0320
   8 C   :1s     0.2330   0.5410   0.1063  -0.0942   1.1486  -0.6779   0.9471
   9 C   :2pz    0.1374   0.0729   0.3319  -0.0522   0.2707   0.1948  -0.0929
  10 C   :2pz    0.0982   0.1701   0.1217   0.0972   0.3401   1.8985   0.0696
  11 Cl2 :1s     0.0512  -0.0288  -0.0111  -0.0004  -0.0145   0.0094   0.0422
  12 Cl2 :1s    -0.2950   0.1698   0.0654   0.0028   0.0894  -0.0535  -0.2514
  13 Cl2 :1s     0.3872  -0.2074  -0.0839  -0.0085  -0.1196   0.3034   1.1549
  14 Cl2 :1s     0.2320  -0.2859  -0.1056  -0.0065  -0.2702  -0.6257  -1.2627
  15 Cl2 :2py    0.0370   0.0798   0.0817   0.0895  -0.1453  -0.0030   0.0725
  16 Cl2 :2pz    0.0200   0.0484   0.0194  -0.1783  -0.0923   0.0530  -0.0957
  17 Cl2 :2py   -0.0767  -0.1651  -0.1732  -0.1906   0.3264  -0.0156  -0.2544
  18 Cl2 :2pz   -0.0414  -0.0999  -0.0409   0.3869   0.2074  -0.1427   0.2997
  19 Cl2 :2py   -0.0029  -0.0346  -0.0965  -0.1494   0.4525   0.4659   0.3876
  20 Cl2 :2pz   -0.0040  -0.0260  -0.0150   0.2997   0.2842   0.0757  -0.0869

    Orbital        15       16       17       18       19       20
   1 O   :1s    -0.0080  -0.0487  -0.0248   0.0155  -0.0599  -0.0549
   2 O   :1s     0.0073   0.0133   0.0529  -0.0522   0.1834   1.7537
   3 O   :1s     0.0201   0.5825  -0.4232  -0.2024   0.1838  -2.8366
   4 O   :2pz    0.0380   0.1190   0.3452   0.4358  -0.8745   0.2341
   5 O   :2pz    0.0962   0.4122   0.2152  -0.5286   1.2606  -1.0232
   6 C   :1s     0.0055   0.0581   0.0406   0.0395  -0.0278   0.0052
   7 C   :1s     0.1085  -0.0245  -0.2957  -1.5618  -0.9191   0.1626
   8 C   :1s    -0.7292  -1.2979   0.1851   2.6217   0.5339   1.2091
   9 C   :2pz    0.1784   0.3655   1.0838  -0.3451   0.1488  -0.2469
  10 C   :2pz   -0.3556   0.1522  -1.2911   0.7721   0.3827  -1.1221
  11 Cl2 :1s     0.0176  -0.0130   0.0074  -0.0005   0.0011   0.0002
  12 Cl2 :1s    -0.1079   0.0756  -0.0472   0.0111  -0.0047  -0.0010
  13 Cl2 :1s     0.3994  -0.4536   0.1886   0.2112   0.1001   0.0306
  14 Cl2 :1s    -0.2020   0.6391   0.0576  -0.8292  -0.2868   0.0315
  15 Cl2 :2py   -0.2279   0.0037   0.0479  -0.0388  -0.0074   0.0004
  16 Cl2 :2pz   -0.0099  -0.2126   0.0606  -0.0194   0.0054  -0.0030
  17 Cl2 :2py    0.7865   0.0015  -0.1854   0.1320   0.0244  -0.0026
  18 Cl2 :2pz    0.0423   0.7633  -0.2513   0.0708  -0.0229  -0.0074
  19 Cl2 :2py   -0.9223  -0.1828  -0.0535   0.4379   0.1508  -0.1045
  20 Cl2 :2pz   -0.1706  -0.9584   0.3128   0.2513   0.1212   0.1140

 Molecular orbitals for symmetry species 2  (B1 )
 ------------------------------------------------

    Orbital         1        2        3        4        5        6        7
   1 O   :2px    0.0001   0.3618  -0.2434  -0.3631   0.0017   0.0864  -1.0178
   2 O   :2px   -0.0010   0.3356  -0.2723  -0.4959  -0.0062   0.1704   1.1501
   3 C   :2px   -0.0006   0.3450  -0.0293   0.4884  -0.4314   0.9406   0.0518
   4 C   :2px    0.0050   0.2998  -0.0006   0.5922   0.1960  -1.2737  -0.4579
   5 Cl2 :2px    0.6869  -0.0624  -0.1841   0.0753   0.2283   0.0888   0.0045
   6 Cl2 :2px    0.0615   0.1324   0.3979  -0.1736  -0.7847  -0.3404  -0.0275
   7 Cl2 :2px   -0.0187   0.0794   0.3204  -0.1649   0.7255   0.5856   0.1190

 Molecular orbitals for symmetry species 3  (B2 )
 ------------------------------------------------

    Orbital         1        2        3        4        5        6        7
   1 O   :2py    0.0001  -0.0003   0.0010  -0.0005   0.0345   0.2880   0.3782
   2 O   :2py    0.0000  -0.0007  -0.0034   0.0018   0.0076   0.2383   0.4155
   3 C   :2py   -0.0001  -0.0003  -0.0001  -0.0002   0.1278   0.3267  -0.0492
   4 C   :2py   -0.0019   0.0136   0.0001  -0.0001   0.0907   0.3233   0.0272
   5 Cl2 :1s     0.6970  -0.2157  -0.0024  -0.0000   0.0577  -0.0176   0.0004
   6 Cl2 :1s     0.0379   0.6903   0.0080   0.0003  -0.3337   0.1044  -0.0017
   7 Cl2 :1s    -0.0138   0.1131  -0.0035  -0.0023   0.4310  -0.1260  -0.0037
   8 Cl2 :1s     0.0083  -0.0547   0.0057   0.0036   0.3066  -0.2096  -0.0027
   9 Cl2 :2py   -0.0001  -0.0051   0.5629   0.3926   0.0216   0.0689  -0.1532
  10 Cl2 :2pz   -0.0000  -0.0039   0.3925  -0.5634   0.0205   0.0865  -0.0555
  11 Cl2 :2py    0.0006  -0.0046   0.0533   0.0364  -0.0457  -0.1454   0.3342
  12 Cl2 :2pz    0.0001  -0.0014   0.0363  -0.0510  -0.0442  -0.1824   0.1258
  13 Cl2 :2py   -0.0019   0.0124  -0.0207  -0.0139  -0.0178  -0.0453   0.2749
  14 Cl2 :2pz   -0.0008   0.0056  -0.0117   0.0159  -0.0070  -0.0746   0.0799

    Orbital         8        9       10       11       12       13       14
   1 O   :2py   -0.1687  -0.2696   0.0016   0.1056  -0.0313  -0.2517  -0.9923
   2 O   :2py   -0.1763  -0.4334  -0.0054  -0.1413  -0.2000  -0.1975   1.3171
   3 C   :2py   -0.0334   0.5809  -0.2738  -0.0272  -0.1673  -0.9884   0.2589
   4 C   :2py   -0.0249   0.9313   0.2027   0.7541   1.1879   1.9641  -1.1852
   5 Cl2 :1s    -0.0008  -0.0154  -0.0378   0.0106   0.0303  -0.0017   0.0024
   6 Cl2 :1s     0.0046   0.0952   0.2283  -0.0607  -0.1775   0.0173  -0.0188
   7 Cl2 :1s    -0.0088  -0.1282  -0.9618   0.4092   1.0852   0.0960  -0.0455
   8 Cl2 :1s     0.0022  -0.3559   0.8398  -0.7178  -1.6413  -0.7526   0.4660
   9 Cl2 :2py   -0.1159  -0.0737   0.1513  -0.0084   0.1751  -0.0828   0.0222
  10 Cl2 :2pz    0.1701  -0.0739   0.0461   0.2324  -0.0437  -0.0218   0.0377
  11 Cl2 :2py    0.2538   0.1634  -0.5118   0.0135  -0.6749   0.3333  -0.0885
  12 Cl2 :2pz   -0.3723   0.1598  -0.1510  -0.8321   0.1363   0.0724  -0.1386
  13 Cl2 :2py    0.1938   0.3790   0.5295   0.2438   1.2503   0.0006  -0.1779
  14 Cl2 :2pz   -0.2898   0.3905   0.1738   1.1081   0.2288   0.4457  -0.1500

 Molecular orbitals for symmetry species 4  (A2 )
 ------------------------------------------------

    Orbital         1        2        3
   1 Cl2 :2px    0.6868  -0.2084   0.2471
   2 Cl2 :2px    0.0620   0.4517  -0.8673
   3 Cl2 :2px   -0.0192   0.3624   0.8915

  Total CPU  time used in SIRIUS :   2.54 seconds
  Total wall time used in SIRIUS :   2.54 seconds

 
     Date and time (Linux)  : Thu May  7 17:02:07 2026
     Host name              : debian                                  


                     .---------------------------------------.
                     | End of Wave Function Section (SIRIUS) |
                     `---------------------------------------'

  Total CPU  time used in DALTON:   2.59 seconds
  Total wall time used in DALTON:   2.59 seconds

 
     Date and time (Linux)  : Thu May  7 17:02:07 2026
     Host name              : debian                                  
