

     ************************************************************************
     *************** Dalton - An Electronic Structure Program ***************
     ************************************************************************

    This is output from DALTON release Dalton2025.0-dev (2025)
         ( Web site: http://daltonprogram.org )

   ----------------------------------------------------------------------------

    NOTE:
     
    Dalton is an experimental code for the evaluation of molecular
    properties using (MC)SCF, DFT, CI, and CC wave functions.
    The authors accept no responsibility for the performance of
    the code or for the correctness of the results.
     
    The code (in whole or part) is provided under a licence and
    is not to be reproduced for further distribution without
    the written permission of the authors or their representatives.
     
    See the home page "http://daltonprogram.org" for further information.
     
    If results obtained with this code are published,
    the appropriate citations would be both of:
     
       K. Aidas, C. Angeli, K. L. Bak, V. Bakken,
       R. Bast, L. Boman, O. Christiansen, R. Cimiraglia,
       S. Coriani, P. Dahle, E. K. Dalskov, U. Ekstroem,
       T. Enevoldsen, J. J. Eriksen, P. Ettenhuber, B. Fernandez,
       L. Ferrighi, H. Fliegl, L. Frediani, K. Hald, A. Halkier,
       C. Haettig, H. Heiberg, T. Helgaker, A. C. Hennum,
       H. Hettema, E. Hjertenaes, S. Hoest, I.-M. Hoeyvik,
       M. F. Iozzi, B. Jansik, H. J. Aa. Jensen, D. Jonsson,
       P. Joergensen, J. Kauczor, S. Kirpekar,
       T. Kjaergaard, W. Klopper, S. Knecht, R. Kobayashi, H. Koch,
       J. Kongsted, A. Krapp, K. Kristensen, A. Ligabue,
       O. B. Lutnaes, J. I. Melo, K. V. Mikkelsen, R. H. Myhre,
       C. Neiss, C. B. Nielsen, P. Norman, J. Olsen,
       J. M. H. Olsen, A. Osted, M. J. Packer, F. Pawlowski,
       T. B. Pedersen, P. F. Provasi, S. Reine, Z. Rinkevicius,
       T. A. Ruden, K. Ruud, V. Rybkin, P. Salek, C. C. M. Samson,
       A. Sanchez de Meras, T. Saue, S. P. A. Sauer,
       B. Schimmelpfennig, K. Sneskov, A. H. Steindal,
       K. O. Sylvester-Hvid, P. R. Taylor, A. M. Teale,
       E. I. Tellgren, D. P. Tew, A. J. Thorvaldsen, L. Thoegersen,
       O. Vahtras, M. A. Watson, D. J. D. Wilson, M. Ziolkowski
       and H. Agren,
       "The Dalton quantum chemistry program system",
       WIREs Comput. Mol. Sci. 2014, 4:269-284 (doi: 10.1002/wcms.1172)
     
    and
     
       Dalton, a molecular electronic structure program,
       Release Dalton2025.0-dev (2025), see http://daltonprogram.org
   ----------------------------------------------------------------------------

    Authors in alphabetical order (Major contribution(s) in parenthesis):

  Kestutis Aidas,              Vilnius University,        Lithuania   (QM/MM)
  Celestino Angeli,            University of Ferrara,     Italy       (NEVPT2)
  Juan J. Aucar,               Northeast National UniversiArgentina   (LRESC, Relativistic Effects on NMR Shieldings and EFG)
  Keld L. Bak,                 UNI-C,                     Denmark     (AOSOPPA, non-adiabatic coupling, magnetic properties)
  Vebjoern Bakken,             University of Oslo,        Norway      (DALTON; geometry optimizer, symmetry detection)
  Radovan Bast,                UiT The Arctic U. of NorwayNorway      (DALTON installation and execution frameworks)
  Pablo Baudin,                University of Valencia,    Spain       (Cholesky excitation energies)
  Linus Boman,                 NTNU,                      Norway      (Cholesky decomposition and subsystems)
  Bruno N. Cabral Tenorio,     Technical Univ. of Denmark,Denmark     (Lanczos-based CC methods)
  Ove Christiansen,            Aarhus University,         Denmark     (CC module)
  Renzo Cimiraglia,            University of Ferrara,     Italy       (NEVPT2)
  Sonia Coriani,               Technical Univ. of Denmark,Denmark     (CC and RESPONS modules)
  Janusz Cukras,               University of Warsaw,      Poland      (MChD in RESPONS)
  Paal Dahle,                  University of Oslo,        Norway      (Parallelization)
  Erik K. Dalskov,             UNI-C,                     Denmark     (SOPPA)
  Thomas Enevoldsen,           Univ. of Southern Denmark, Denmark     (SOPPA)
  Janus J. Eriksen,            Aarhus University,         Denmark     (Polarizable embedding, TDA)
  Rasmus Faber,                Technical Univ. of Denmark,Denmark     (Vib.avg. NMR w. SOPPA, parallel AO-SOPPA, CVS-CC and EOMCC)
  Tobias Fahleson,             KTH Stockholm,             Sweden      (Damped cubic response)
  Berta Fernandez,             U. of Santiago de CompostelSpain       (Doublet spin, ESR in RESPONS)
  Lara Ferrighi,               Aarhus University,         Denmark     (PCM Cubic response)
  Heike Fliegl,                University of Oslo,        Norway      (CCSD(R12))
  Luca Frediani,               UiT The Arctic U. of NorwayNorway      (PCM)
  Emmanuel Fromager,           Univ. Strasbourg,          France      (MC-srDFT)
  Bin Gao,                     UiT The Arctic U. of NorwayNorway      (Gen1Int library)
  Andre S. P. Gomes,           CNRS/Universite de Lille,  France      (Frozen density embedding)
  Christof Haettig,            Ruhr-University Bochum,    Germany     (CC module)
  Kasper Hald,                 Aarhus University,         Denmark     (CC module)
  Asger Halkier,               Aarhus University,         Denmark     (CC module)
  Frederik Beyer Hansen,       University of Copenhagen,  Denmark     (Parallel AO-SOPPA)
  Erik D. Hedegaard,           Univ. of Southern Denmark, Denmark     (Polarizable embedding, QM/MM, and MC-srDFT)
  Hanne Heiberg,               University of Oslo,        Norway      (Geometry analysis, selected one-electron integrals)
  Trygve Helgaker,             University of Oslo,        Norway      (DALTON; ABACUS, ERI, DFT modules, London, and much more)
  Alf Christian Hennum,        University of Oslo,        Norway      (Parity violation)
  Hinne Hettema,               University of Auckland,    New Zealand (Quadratic response in RESPONS; SIRIUS supersymmetry)
  Andreas E. Hillers-Bendtsen, University of Copenhagen,  Denmark     (MP3)
  Eirik Hjertenaes,            NTNU,                      Norway      (Cholesky decomposition)
  Nicolai Machholdt Hoeyer,    Aarhus University,         Denmark     (MP3)
  Pi A. B. Haase,              University of Copenhagen,  Denmark     (Triplet AO-SOPPA)
  Maria Francesca Iozzi,       University of Oslo,        Norway      (RPA)
  Christoph Jacob,             TU Braunschweig            Germany     (Frozen density embedding)
  Brano Jansik,                Technical Univ. of Ostrava Czech Rep.  (DFT cubic response)
  Hans Joergen Aa. Jensen,     Univ. of Southern Denmark, Denmark     (DALTON; SIRIUS, RESPONS, ABACUS, MC-srDFT, and much more)
  Dan Jonsson,                 UiT The Arctic U. of NorwayNorway      (Cubic response in RESPONS module)
  Poul Joergensen,             Aarhus University,         Denmark     (RESPONS, ABACUS, and CC modules)
  Maciej Kaminski,             University of Warsaw,      Poland      (CPPh in RESPONS)
  Joanna Kauczor,              Linkoeping University,     Sweden      (Complex polarization propagator (CPP) module)
  Sheela Kirpekar,             Univ. of Southern Denmark, Denmark     (Mass-velocity & Darwin integrals)
  Frederik Oersted Kjeldal,    Technical Univ. of Denmark,Denmark     (MP3)
  Erik Kjellgren,              Univ. of Southern Denmark, Denmark     (MC-srDFT)
  Wim Klopper,                 KIT Karlsruhe,             Germany     (R12 code in CC, SIRIUS, and ABACUS modules)
  Stefan Knecht,               ETH Zurich,                Switzerland (Parallel CI and MCSCF, MC-srDFT)
  Rika Kobayashi,              Australian National Univ., Australia   (DIIS in CC, London in MCSCF)
  Henrik Koch,                 NTNU,                      Norway      (CC module, Cholesky decomposition)
  Jacob Kongsted,              Univ. of Southern Denmark, Denmark     (Polarizable embedding, polarizable density embedding, QM/MM)
  Andrea Ligabue,              University of Modena,      Italy       (CTOCD, AOSOPPA)
  Nanna H. List,               Univ. of Southern Denmark, Denmark     (Polarizable embedding)
  Ola B. Lutnaes,              University of Oslo,        Norway      (DFT Hessian)
  Juan I. Melo,                University of Buenos Aires,Argentina   (LRESC, Relativistic Effects on NMR Shieldings)
  Kurt V. Mikkelsen,           University of Copenhagen,  Denmark     (MC-SCRF, QM/MM, and MP3)
  Rolf H. Myhre,               NTNU,                      Norway      (Subsystems and CC3)
  Christian Neiss,             Univ. Erlangen-Nuernberg,  Germany     (CCSD(R12))
  Christian B. Nielsen,        University of Copenhagen,  Denmark     (QM/MM)
  Patrick Norman,              KTH Stockholm,             Sweden      (Cubic response and complex frequency response in RESPONS)
  Jeppe Olsen,                 Aarhus University,         Denmark     (SIRIUS CI/density modules)
  Jogvan Magnus H. Olsen,      Aarhus University,         Denmark     (Polarizable embedding and polarizable density embedding)
  Anders Osted,                Copenhagen University,     Denmark     (QM/MM)
  Martin J. Packer,            University of Sheffield,   UK          (SOPPA)
  Filip Pawlowski,             Kazimierz Wielki UniversityPoland      (CC3)
  Morten N. Pedersen,          Univ. of Southern Denmark, Denmark     (Polarizable embedding)
  Thomas B. Pedersen,          University of Oslo,        Norway      (Cholesky decomposition)
  Patricio F. Provasi,         University of Northeastern,Argentina   (Analysis of coupling constants in localized orbitals)
  Peter Reinholdt,             Univ. of Southern Denmark, Denmark     (Polarizable embedding and polarizable density embedding)
  Zilvinas Rinkevicius,        KTH Stockholm,             Sweden      (open-shell DFT, ESR)
  Elias Rudberg,               KTH Stockholm,             Sweden      (DFT grid and basis info)
  Torgeir A. Ruden,            University of Oslo,        Norway      (Numerical derivatives in ABACUS)
  Kenneth Ruud,                UiT The Arctic U. of NorwayNorway      (DALTON; ABACUS magnetic properties and much more)
  Pawel Salek,                 KTH Stockholm,             Sweden      (DALTON; DFT code)
  Claire C. M. Samson,         University of Karlsruhe    Germany     (Boys localization, r12 integrals in ERI)
  Alfredo Sanchez de Meras,    University of Valencia,    Spain       (CC module, Cholesky decomposition)
  Trond Saue,                  Paul Sabatier University,  France      (direct Fock matrix construction)
  Stephan P. A. Sauer,         University of Copenhagen,  Denmark     (SOPPA(CCSD), SOPPA prop., AOSOPPA, vibrational g-factors)
  Bernd Schimmelpfennig,       Forschungszentrum KarlsruheGermany     (AMFI module)
  Anna K. Schnack-Petersen,    University of Copenhagen,  Denmark     (RPA(D) and HRPA(D) properties in AOSOPPA)
  Kristian Sneskov,            Aarhus University,         Denmark     (Polarizable embedding, QM/MM)
  Arnfinn H. Steindal,         UiT The Arctic U. of NorwayNorway      (parallel QM/MM, polarizable embedding)
  Casper Steinmann,            Aalborg University,        Denmark     (QFIT, polarizable embedding)
  K. O. Sylvester-Hvid,        University of Copenhagen,  Denmark     (MC-SCRF)
  Peter R. Taylor,             VLSCI/Univ. of Melbourne,  Australia   (Symmetry handling ABACUS, integral transformation)
  Andrew M. Teale,             University of Nottingham,  England     (DFT-AC, DFT-D)
  David P. Tew,                University of Bristol,     England     (CCSD(R12))
  Julien Toulouse,             Sorbonne Univ.,            France      (MC-srDFT)
  Olav Vahtras,                KTH Stockholm,             Sweden      (Triplet response, spin-orbit, ESR, TDDFT, open-shell DFT)
  Lucas Visscher,              Vrije Universiteit AmsterdaNetherlands (Frozen density embedding)
  David J. Wilson,             La Trobe University,       Australia   (DFT Hessian and DFT magnetizabilities)
  Luna Zamok,                  University of Copenhagen,  Denmark     (Block Lanczos RPA solver in SOPPA module)
  Hans Agren,                  KTH Stockholm,             Sweden      (SIRIUS module, RESPONS, MC-SCRF solvation)
 --------------------------------------------------------------------------------

     Date and time (Linux)  : Mon May  4 22:23:48 2026
     Host name              : debian                                  

 * Work memory size             :    64000000 =  488.28 megabytes.

 * Directories for basis set searches:
   1) /home/vdwv/DIPLOM_ITMO/CALCULATIONS_AND_SOFTS/softwares/Dalton_Shenanigans/dalton/dalton/build
   2) /home/vdwv/DIPLOM_ITMO/CALCULATIONS_AND_SOFTS/softwares/Dalton_Shenanigans/dalton/dalton/build/basis


Compilation information
-----------------------

 Who compiled             | vdwv
 Host                     | debian
 System                   | Linux-6.12.73+deb13-amd64
 CMake generator          | Unix Makefiles
 Processor                | x86_64
 64-bit integers          | OFF
 MPI                      | OFF
 Fortran compiler         | /usr/bin/gfortran
 Fortran compiler version | GNU Fortran (Debian 14.2.0-19) 14.2.0
 C compiler               | /usr/bin/gcc
 C compiler version       | gcc (Debian 14.2.0-19) 14.2.0
 C++ compiler             | /usr/bin/g++
 C++ compiler version     | g++ (Debian 14.2.0-19) 14.2.0
 BLAS                     | /opt/intel/oneapi/mkl/2025.3/lib/intel64/libmkl_gf
                          | _lp64.so;/opt/intel/oneapi/mkl/2025.3/lib/intel64/
                          | libmkl_sequential.so;/opt/intel/oneapi/mkl/2025.3/
                          | lib/intel64/libmkl_core.so;/usr/lib/x86_64-linux-g
                          | nu/libpthread.a;/usr/lib/x86_64-linux-gnu/libm.so
 LAPACK                   | /opt/intel/oneapi/mkl/2025.3/lib/intel64/libmkl_la
                          | pack95_lp64.a;/opt/intel/oneapi/mkl/2025.3/lib/int
                          | el64/libmkl_gf_lp64.so
 Static linking           | OFF
 Last Git revision        | 1892235f9264b9be21ec2fefe6e0081d659ab244
 Git branch               | master
 Configuration time       | 2026-05-04 17:50:26.788788

 * Sequential calculation.


   Content of the .dal input file
 ----------------------------------

BASIS
3-21G
Acetic acid CH3COOH using the 3-21G basis
Using automatic symmetry detection
AtomTypes=3 Angstrom
Charge=6.0 Atoms=2
C1    1.120     -0.832      0.000
C2    0.000      0.163      0.000
Charge=8.0 Atoms=2
O3    0.087      1.362      0.000
O7   -1.201     -0.474      0.000
Charge=1.0 Atoms=4
H4    2.066     -0.315      0.000
H5    1.037     -1.465      0.874
H6    1.037     -1.465     -0.874
H8   -1.941      0.152      0.000

**DALTON INPUT
.RUN WAVE FUN
**WAVE FUN
.HF
**END OF


       *******************************************************************
       *********** Output from DALTON general input processing ***********
       *******************************************************************

 --------------------------------------------------------------------------------
   Overall default print level:    0
   Print level for DALTON.STAT:    1

    HERMIT 1- and 2-electron integral sections will be executed
    "Old" integral transformation used (limited to max 255 basis functions)
    Wave function sections will be executed (SIRIUS module)
 --------------------------------------------------------------------------------


   ****************************************************************************
   *************** Output of molecule and basis set information ***************
   ****************************************************************************


    The two title cards from your ".mol" input:
    --------------------------------------------------------------------------------
 1: Acetic acid CH3COOH using the 3-21G basis
 2: Using automatic symmetry detection
    --------------------------------------------------------------------------------

  Coordinates are entered in Angstrom and converted to atomic units.
          - Conversion factor : 1 bohr = 0.52917721080 A

  Atomic type no.    1
  --------------------
  Nuclear charge:   6.00000
  Number of symmetry independent centers:    2
  Number of basis sets to read;    2
  Basis set file used for this atomic type with Z =   6 :
     "/home/vdwv/DIPLOM_ITMO/CALCULATIONS_AND_SOFTS/softwares/Dalton_Shenanigans/dalton/dalton/build/basis/3-21G"

  Info about the basis set file: your basis has no documentation.
  Basis set: 3-21G                                                                           

  Atomic type no.    2
  --------------------
  Nuclear charge:   8.00000
  Number of symmetry independent centers:    2
  Number of basis sets to read;    2
  Basis set file used for this atomic type with Z =   8 :
     "/home/vdwv/DIPLOM_ITMO/CALCULATIONS_AND_SOFTS/softwares/Dalton_Shenanigans/dalton/dalton/build/basis/3-21G"

  Info about the basis set file: your basis has no documentation.
  Basis set: 3-21G                                                                           

  Atomic type no.    3
  --------------------
  Nuclear charge:   1.00000
  Number of symmetry independent centers:    4
  Number of basis sets to read;    2
  Basis set file used for this atomic type with Z =   1 :
     "/home/vdwv/DIPLOM_ITMO/CALCULATIONS_AND_SOFTS/softwares/Dalton_Shenanigans/dalton/dalton/build/basis/3-21G"

  Info about the basis set file: your basis has no documentation.
  Basis set: 3-21G                                                                           


                      SYMADD: Addition of symmetry requested
                      --------------------------------------

 Symmetry test threshold:  5.00E-06

@  The molecule has been centered at center of mass and rotated
@  so the principal axes of inertia are along coordinate axes.

 Symmetry class found: C(s)           

 Symmetry Independent Centres             
 ----------------------------
O7     8 :     -1.14985092    -2.12332095     0.00000000  Isotope  1
O3     8 :     -1.31663816     2.11154230     0.00000000  Isotope  1
C2     6 :     -0.07418196     0.20967523     0.00000000  Isotope  1
C1     6 :      2.74888100    -0.00316907     0.00000000  Isotope  1
H8     1 :     -2.97911395    -2.02990534     0.00000000  Isotope  1
H5     1 :      3.34910426    -1.04969642     1.65162063  Isotope  1
H4     1 :      3.57869489     1.85740028     0.00000000  Isotope  1

 The following symmetry element was found:   Z        


                         SYMGRP: Point group information
                         -------------------------------

@    Full point group is: C(s)           
@    Represented as:      Cs 

@  * The irrep name for each symmetry:    1: A'     2: A" 

   * The point group was generated by:

      Reflection in the xy-plane

   * Group multiplication table

        |  E   Oxy
   -----+----------
     E  |  E   Oxy
    Oxy | Oxy   E 

   * Character table

        |  E   Oxy
   -----+----------
    A'  |   1    1
    A"  |   1   -1

   * Direct product table

        | A'   A" 
   -----+----------
    A'  | A'   A" 
    A"  | A"   A' 


                                 Isotopic Masses
                                 ---------------

                           C1         12.000000
                           C2         12.000000
                           O3         15.994915
                           O7         15.994915
                           H4          1.007825
                           H5  _1      1.007825
                           H5  _2      1.007825
                           H8          1.007825

                       Total mass:    60.021130 amu
                       Natural abundance:  97.285 %

 Center-of-mass coordinates (a.u.):   -0.000000   -0.000000    0.000000
 Center-of-mass coordinates (Angs):   -0.000000   -0.000000    0.000000


  Atoms and basis sets
  --------------------

  Number of atom types :    3
  Total number of atoms:    8

  Basis set used is "3-21G" from the basis set library.

  label    atoms   charge   prim   cont     basis
  ----------------------------------------------------------------------
  C2          2    6.0000    15     9      [6s3p|3s2p]                                        
  O7          2    8.0000    15     9      [6s3p|3s2p]                                        
  H8          4    1.0000     3     2      [3s|2s]                                            
  ----------------------------------------------------------------------
  total:      8   32.0000    72    44
  ----------------------------------------------------------------------

  Threshold for neglecting AO integrals:  1.00D-12


  Cartesian Coordinates (bohr)
  ----------------------------

  Total number of coordinates:   24
  C1      :     1  x   2.7488810012    2  y  -0.0031690656    3  z   0.0000000000
  C2      :     4  x  -0.0741819597    5  y   0.2096752308    6  z   0.0000000000
  O3      :     7  x  -1.3166381600    8  y   2.1115422995    9  z   0.0000000000
  O7      :    10  x  -1.1498509191   11  y  -2.1233209483   12  z   0.0000000000
  H4      :    13  x   3.5786948945   14  y   1.8574002828   15  z   0.0000000000
  H5  / 1 :    16  x   3.3491042603   17  y  -1.0496964181   18  z   1.6516206332
  H5  / 2 :    19  x   3.3491042603   20  y  -1.0496964181   21  z  -1.6516206332
  H8      :    22  x  -2.9791139467   23  y  -2.0299053408   24  z   0.0000000000


  Cartesian Coordinates (xyz format; angstrom)
  --------------------------------------------

    8

  C        1.4546451810           -0.0016769973            0.0000000000
  C       -0.0392554025            0.1109553538            0.0000000000
  O       -0.6967349091            1.1173800645            0.0000000000
  O       -0.6084749022           -1.1236130571            0.0000000000
  H        1.8937637826            0.9828939010            0.0000000000
  H        1.7722696512           -0.5554754227            0.8740000000
  H        1.7722696512           -0.5554754227           -0.8740000000
  H       -1.5764792090           -1.0741796465            0.0000000000


  Symmetry Coordinates
  --------------------

  Number of coordinates in each symmetry:    15    9

  Symmetry  A'  ( 1)

    1   C1    x    1
    2   C1    y    2
    3   C2    x    4
    4   C2    y    5
    5   O3    x    7
    6   O3    y    8
    7   O7    x   10
    8   O7    y   11
    9   H4    x   13
   10   H4    y   14
   11   H5    x    [ 16  +   19 ]/2
   12   H5    y    [ 17  +   20 ]/2
   13   H5    z    [ 18  -   21 ]/2
   14   H8    x   22
   15   H8    y   23

  Symmetry  A"  ( 2)

   16   C1    z    3
   17   C2    z    6
   18   O3    z    9
   19   O7    z   12
   20   H4    z   15
   21   H5    x    [ 16  -   19 ]/2
   22   H5    y    [ 17  -   20 ]/2
   23   H5    z    [ 18  +   21 ]/2
   24   H8    z   24


   Interatomic separations (in Angstrom):
   --------------------------------------

            C1          C2          O3          O7          H4          H5  _1
            ------      ------      ------      ------      ------      ------
 C1    :    0.000000
 C2    :    1.498141    0.000000
 O3    :    2.425021    1.202152    0.000000
 O7    :    2.348447    1.359474    2.242730    0.000000
 H4    :    1.078056    2.120575    2.593987    3.270867    0.000000
 H5  _1:    1.082337    2.118874    3.107781    2.598962    1.773476    0.000000
 H5  _2:    1.082337    2.118874    3.107781    2.598962    1.773476    1.748000
 H8    :    3.215272    1.941031    2.361543    0.969266    4.034122    3.499578

            H5  _2      H8    
            ------      ------
 H5  _2:    0.000000
 H8    :    3.499578    0.000000


  Max    interatomic separation is    4.0341 Angstrom (    7.6234 Bohr)
  between atoms    8 and    5, "H8    " and "H4    ".

  Min HX interatomic separation is    0.9693 Angstrom (    1.8316 Bohr)

  Min YX interatomic separation is    1.2022 Angstrom (    2.2717 Bohr)


  Bond distances (Angstrom):
  --------------------------

                  atom 1     atom 2       distance
                  ------     ------       --------
  bond distance:  C2         C1           1.498141
  bond distance:  O3         C2           1.202152
  bond distance:  O7         C2           1.359474
  bond distance:  H4         C1           1.078056
  bond distance:  H5  _1     C1           1.082337
  bond distance:  H5  _2     C1           1.082337
  bond distance:  H8         O7           0.969266


  Bond angles (degrees):
  ----------------------

                  atom 1     atom 2     atom 3         angle
                  ------     ------     ------         -----
  bond angle:     C2         C1         H4           109.725
  bond angle:     C2         C1         H5  _1       109.336
  bond angle:     C2         C1         H5  _2       109.336
  bond angle:     H4         C1         H5  _1       110.351
  bond angle:     H4         C1         H5  _2       110.351
  bond angle:     H5  _1     C1         H5  _2       107.707
  bond angle:     C1         C2         O3           127.468
  bond angle:     C1         C2         O7           110.441
  bond angle:     O3         C2         O7           122.091
  bond angle:     C2         O7         H8           111.829




 Principal moments of inertia (u*A**2) and principal axes
 --------------------------------------------------------

   IA      44.609883          1.000000    0.000000    0.000000
   IB      53.086832         -0.000000    1.000000    0.000000
   IC      94.617301          0.000000    0.000000    1.000000


 Rotational constants
 --------------------

               A                   B                   C

          11328.8576           9519.8562           5341.2959 MHz
            0.377890            0.317548            0.178166 cm-1


@  Nuclear repulsion energy :  121.251984567092 Hartree


  Symmetry Orbitals
  -----------------

  Number of orbitals in each symmetry:          34   10


  Symmetry  A' ( 1)

    1     C1       1s         1
    2     C1       1s         2
    3     C1       1s         3
    4     C1       2px        4
    5     C1       2py        5
    6     C1       2px        7
    7     C1       2py        8
    8     C2       1s        10
    9     C2       1s        11
   10     C2       1s        12
   11     C2       2px       13
   12     C2       2py       14
   13     C2       2px       16
   14     C2       2py       17
   15     O3       1s        19
   16     O3       1s        20
   17     O3       1s        21
   18     O3       2px       22
   19     O3       2py       23
   20     O3       2px       25
   21     O3       2py       26
   22     O7       1s        28
   23     O7       1s        29
   24     O7       1s        30
   25     O7       2px       31
   26     O7       2py       32
   27     O7       2px       34
   28     O7       2py       35
   29     H4       1s        37
   30     H4       1s        38
   31     H5       1s        39 +   40
   32     H5       1s        41 +   42
   33     H8       1s        43
   34     H8       1s        44


  Symmetry  A" ( 2)

   35     C1       2pz        6
   36     C1       2pz        9
   37     C2       2pz       15
   38     C2       2pz       18
   39     O3       2pz       24
   40     O3       2pz       27
   41     O7       2pz       33
   42     O7       2pz       36
   43     H5       1s        39 -   40
   44     H5       1s        41 -   42

  Symmetries of electric field:  A' (1)  A' (1)  A" (2)

  Symmetries of magnetic field:  A" (2)  A" (2)  A' (1)


                     .---------------------------------------.
                     | Starting in Integral Section (HERMIT) |
                     `---------------------------------------'



 ***************************************************************************************
 ****************** Output from **INTEGRALS input processing (HERMIT) ******************
 ***************************************************************************************


 - Using defaults, no **INTEGRALS input found

 Default print level:        1

 Calculation of one- and two-electron Hamiltonian integrals.

 Center of mass  (bohr):     -0.000000000000     -0.000000000000      0.000000000000
 Operator center (bohr):      0.000000000000      0.000000000000      0.000000000000
 Gauge origin    (bohr):     -0.000000000000     -0.000000000000      0.000000000000
 Dipole origin   (bohr):     -0.000000000000     -0.000000000000      0.000000000000

Calculation of 2-electron integrals are postponed until they are needed.


     ************************************************************************
     ************************** Output from HERINT **************************
     ************************************************************************



                      Nuclear contribution to dipole moments
                      --------------------------------------

                 au               Debye          C m (/(10**-30)

      x      3.61407108         9.18605183        30.64137069
      y     -1.12709009        -2.86477708        -9.55586776


  Total CPU  time used in HERMIT:   0.03 seconds
  Total wall time used in HERMIT:   0.03 seconds


                        .----------------------------------.
                        | End of Integral Section (HERMIT) |
                        `----------------------------------'



                   .--------------------------------------------.
                   | Starting in Wave Function Section (SIRIUS) |
                   `--------------------------------------------'


 *** Output from Huckel module :

     Using EWMO model:          F
     Using EHT  model:          T
     Number of Huckel orbitals each symmetry:   19    5

 Huckel EHT eigenvalues for symmetry :  1
          -20.708581     -20.705337     -11.390770     -11.374430      -1.661034
           -1.405970      -1.239540      -0.788117      -0.720733      -0.692052
           -0.573168      -0.559765      -0.487839      -0.284259      -0.261414
           -0.218607      -0.209658      -0.192703      -0.179101

 Huckel EHT eigenvalues for symmetry :  2
           -0.763229      -0.597430      -0.579546      -0.310520      -0.198396

 **********************************************************************
 *SIRIUS* a direct, restricted step, second order MCSCF program       *
 **********************************************************************

 
     Date and time (Linux)  : Mon May  4 22:23:48 2026
     Host name              : debian                                  

 Title lines from ".mol" input file:
     Acetic acid CH3COOH using the 3-21G basis
     Using automatic symmetry detection

 Print level on unit LUPRI =   2 is   0
 Print level on unit LUW4  =   2 is   5

@    Restricted, closed shell Hartree-Fock calculation.

 Initial molecular orbitals are obtained according to
 ".MOSTART EHT   " input option

     Wave function specification
     ============================
@    Wave function type        --- HF ---
@    Number of closed shell electrons          32
@    Number of electrons in active shells       0
@    Total charge of the molecule               0

@    Spin multiplicity and 2 M_S                1         0
@    Total number of symmetries                 2 (point group: Cs )
@    Reference state symmetry                   1 (irrep name : A' )

     Orbital specifications
     ======================
@    Abelian symmetry species          All |    1    2
@                                          |  A'   A" 
                                       --- |  ---  ---
@    Total number of orbitals           44 |   34   10
@    Number of basis functions          44 |   34   10

      ** Automatic occupation of RHF orbitals **

      -- Initial occupation of symmetries is determined from extended Huckel guess.           
      -- Initial occupation of symmetries is :
@    Occupied SCF orbitals              16 |   13    3

     Maximum number of Fock   iterations      0
     Maximum number of DIIS   iterations     60
     Maximum number of QC-SCF iterations     60
     Threshold for SCF convergence     1.00D-05


 ***********************************************
 ***** DIIS acceleration of SCF iterations *****
 ***********************************************

 C1-DIIS algorithm; max error vectors =    8

 Automatic occupation of symmetries with  32 electrons.

 Iter     Total energy    Error norm  Delta(E)    SCF occupation
 -----------------------------------------------------------------------------

Calculating AOSUPINT

---> (Re)generating AOTWOINT


     ************************************************************************
     ************************** Output from HERINT **************************
     ************************************************************************


***  INFO  GETGAB: GABSO--- not found on AOGABINT. Regenerating.

 Threshold for neglecting two-electron integrals:  1.00D-12
 HERMIT - Number of two-electron integrals written:      254088 ( 51.8% )
 HERMIT - Megabytes written:                              3.021

     (Precalculated AO two-electron integrals are transformed to P-supermatrix elements.
      Threshold for discarding integrals :  1.00D-12 )

@  1  -225.708383223       4.25D+00  -2.26D+02    13   3
      Virial theorem: -V/T =      1.995401
@    MULPOP   C1      0.35; C2      0.94; O3     -0.81; O7     -0.37; H4     -0.11; H5  _1 -0.08; H5  _2 -0.08; H8      0.15; 
   1  Level shift: doubly occupied orbital energies shifted by -2.00D-01
 -----------------------------------------------------------------------------
@  2  -226.424434131       1.46D+00  -7.16D-01    13   3
      Virial theorem: -V/T =      2.006746
@    MULPOP   C1     -0.71; C2      0.25; O3     -0.10; O7     -0.55; H4      0.25; H5  _1  0.25; H5  _2  0.25; H8      0.34; 
   2  Level shift: doubly occupied orbital energies shifted by -1.00D-01
 -----------------------------------------------------------------------------
@  3  -226.521818060       4.90D-01  -9.74D-02    13   3
      Virial theorem: -V/T =      2.001343
@    MULPOP   C1     -0.65; C2      0.88; O3     -0.67; O7     -0.65; H4      0.23; H5  _1  0.24; H5  _2  0.24; H8      0.38; 
   3  Level shift: doubly occupied orbital energies shifted by -5.00D-02
 -----------------------------------------------------------------------------
@  4  -226.533334154       9.85D-02  -1.15D-02    13   3
      Virial theorem: -V/T =      2.002734
@    MULPOP   C1     -0.67; C2      0.82; O3     -0.59; O7     -0.72; H4      0.24; H5  _1  0.25; H5  _2  0.25; H8      0.40; 
   4  Level shift: doubly occupied orbital energies shifted by -1.25D-02
 -----------------------------------------------------------------------------
@  5  -226.534098132       3.47D-02  -7.64D-04    13   3
      Virial theorem: -V/T =      2.002575
@    MULPOP   C1     -0.69; C2      0.82; O3     -0.60; O7     -0.71; H4      0.25; H5  _1  0.26; H5  _2  0.26; H8      0.41; 
 -----------------------------------------------------------------------------
@  6  -226.534218172       1.11D-02  -1.20D-04    13   3
      Virial theorem: -V/T =      2.002412
@    MULPOP   C1     -0.68; C2      0.83; O3     -0.60; O7     -0.72; H4      0.25; H5  _1  0.26; H5  _2  0.26; H8      0.41; 
 -----------------------------------------------------------------------------
@  7  -226.534232609       3.79D-03  -1.44D-05    13   3
      Virial theorem: -V/T =      2.002457
@    MULPOP   C1     -0.68; C2      0.82; O3     -0.60; O7     -0.71; H4      0.25; H5  _1  0.26; H5  _2  0.26; H8      0.41; 
 -----------------------------------------------------------------------------
@  8  -226.534235532       1.10D-03  -2.92D-06    13   3
      Virial theorem: -V/T =      2.002442
@    MULPOP   C1     -0.68; C2      0.82; O3     -0.60; O7     -0.71; H4      0.25; H5  _1  0.26; H5  _2  0.26; H8      0.41; 
 -----------------------------------------------------------------------------
@  9  -226.534235767       4.49D-04  -2.34D-07    13   3
      Virial theorem: -V/T =      2.002443
@    MULPOP   C1     -0.68; C2      0.82; O3     -0.60; O7     -0.71; H4      0.25; H5  _1  0.26; H5  _2  0.26; H8      0.41; 
 -----------------------------------------------------------------------------
@ 10  -226.534235794       1.22D-04  -2.72D-08    13   3
      Virial theorem: -V/T =      2.002442
@    MULPOP   C1     -0.68; C2      0.82; O3     -0.60; O7     -0.71; H4      0.25; H5  _1  0.26; H5  _2  0.26; H8      0.41; 
 -----------------------------------------------------------------------------
@ 11  -226.534235796       3.49D-05  -2.47D-09    13   3
      Virial theorem: -V/T =      2.002442
@    MULPOP   C1     -0.68; C2      0.82; O3     -0.60; O7     -0.71; H4      0.25; H5  _1  0.26; H5  _2  0.26; H8      0.41; 
 -----------------------------------------------------------------------------
@ 12  -226.534235797       6.16D-06  -1.83D-10    13   3

@ *** DIIS converged in  12 iterations !
@     Converged SCF energy, gradient:   -226.534235796508    6.16D-06
    - total time used in SIRFCK :              0.00 seconds


 *** SCF orbital energy analysis ***

 Only the 20 lowest virtual orbital energies printed in each symmetry.

 Number of electrons        :   32
 Closed shell orbitals      :   13    3

 Sym       Hartree-Fock orbital energies

1 A'    -20.49829789   -20.45355176   -11.33932631   -11.18465680    -1.46792340
         -1.36491852    -1.03240381    -0.81618904    -0.68775497    -0.67296232
         -0.57518897    -0.55689446    -0.44181290     0.26095537     0.29247019
          0.33498133     0.42554131     0.53981039     0.58495435     0.96652647
          0.99178732     1.06855638     1.10330285     1.27456895     1.28498658
          1.35260419     1.59672015     1.88603938     1.95406472     2.01028553
          2.12988412     2.27168480     3.42256346

2 A"     -0.65011176    -0.55643889    -0.46514153     0.18689090     0.35181722
          0.91557014     1.03404949     1.31902778     1.79330458     1.95640288

    E(LUMO) :     0.18689090 au (symmetry 2)
  - E(HOMO) :    -0.44181290 au (symmetry 1)
  ------------------------------------------
    gap     :     0.62870380 au

 --- Writing SIRIFC interface file

--------------------------------------------------------------------------------


     .--------------------------------------------------.
     | HF-SCF KT IPs [a.u. & eV] from Koopmans' theorem |
     `--------------------------------------------------'


     HF-SCF KT symmetry 1 ( A' ) in point group Cs  -- 13 principal poles with pole strength 1

   ============  ============  ============  ============  ============
      20.498298     20.453552     11.339326     11.184657      1.467923
     557.787060    556.569455    308.558765    304.349993     39.944228
   ============  ============  ============  ============  ============

   ============  ============  ============  ============  ============
       1.364919      1.032404      0.816189      0.687755      0.672962
      37.141322     28.093137     22.209634     18.714765     18.312236
   ============  ============  ============  ============  ============

   ============  ============  ============
       0.575189      0.556894      0.441813
      15.651688     15.153869     12.022341
   ============  ============  ============

     HF-SCF KT symmetry 2 ( A" ) in point group Cs  -- 3 principal poles with pole strength 1

   ============  ============  ============
       0.650112      0.556439      0.465142
      17.690441     15.141472     12.657145
   ============  ============  ============

@ Summary of HF-SCF KT ionization potentials [eV]:

@ Symmetry 1 (A' ) :   557.787     556.569     308.559     304.350      39.944
@                       37.141      28.093      22.210      18.715      18.312
@                       15.652      15.154      12.022

@ Symmetry 2 (A" ) :    17.690      15.141      12.657

  === End of HF-SCF KT output ===
--------------------------------------------------------------------------------


 CPU and wall time for SCF :       0.093       0.093


                       .-----------------------------------.
                       | --- Final results from SIRIUS --- |
                       `-----------------------------------'


@    Spin multiplicity:           1
@    Spatial symmetry:            1 ( irrep  A'  in Cs  )
@    Total charge of molecule:    0

@    Final HF energy:            -226.534235796508                 
@    Nuclear repulsion:           121.251984567092
@    Electronic energy:          -347.786220363600

@    Final gradient norm:           0.000006164716

 
     Date and time (Linux)  : Mon May  4 22:23:49 2026
     Host name              : debian                                  

File label for MO orbitals:   4May26   FOCKDIIS

 (Only coefficients > 0.0100 are printed.)

 Molecular orbitals for symmetry species 1  (A' )
 ------------------------------------------------

    Orbital         1        2        3        4        5        6        7
   1 C1  :1s    -0.0000  -0.0000  -0.0016   0.9875  -0.0178  -0.0012  -0.1909
   2 C1  :1s    -0.0006  -0.0002  -0.0029   0.1024   0.0190   0.0013   0.1852
   3 C1  :1s     0.0019   0.0066   0.0234  -0.0853   0.0010  -0.0116   0.5438
   4 C1  :2px    0.0005  -0.0001   0.0007  -0.0003  -0.0221  -0.0012  -0.0496
   6 C1  :2px   -0.0009  -0.0036  -0.0161   0.0069   0.0175   0.0121  -0.0127
   7 C1  :2py    0.0040  -0.0078   0.0001  -0.0005   0.0035   0.0354   0.0011
   8 C2  :1s    -0.0004   0.0003   0.9866   0.0010  -0.1282  -0.0374  -0.0757
   9 C2  :1s    -0.0005   0.0019   0.0948  -0.0023   0.1474   0.0401   0.0959
  10 C2  :1s     0.0138   0.0181  -0.0476   0.0226   0.1148   0.0374   0.1384
  11 C2  :2px   -0.0011  -0.0010  -0.0004  -0.0004  -0.0863  -0.0388   0.1638
  12 C2  :2py   -0.0013   0.0017   0.0005   0.0002   0.0258   0.1857  -0.0445
  13 C2  :2px   -0.0089  -0.0173  -0.0219   0.0148   0.0654   0.0190   0.0589
  14 C2  :2py   -0.0146   0.0217   0.0063   0.0010  -0.0217  -0.0472  -0.0229
  15 O3  :1s    -0.0004   0.9838   0.0002   0.0000  -0.1398  -0.1632   0.0421
  16 O3  :1s     0.0001   0.1006   0.0017   0.0000   0.1286   0.1533  -0.0421
  17 O3  :1s    -0.0001  -0.0586  -0.0060  -0.0010   0.4414   0.5263  -0.1390
  18 O3  :2px   -0.0007   0.0024  -0.0008   0.0001   0.0458   0.0566   0.0304
  19 O3  :2py   -0.0003  -0.0041   0.0002   0.0002  -0.0830  -0.0701   0.0120
  20 O3  :2px    0.0035  -0.0083  -0.0000  -0.0022   0.0392   0.0620   0.0211
  21 O3  :2py    0.0032   0.0141   0.0068  -0.0005  -0.0972  -0.0749   0.0082
  22 O7  :1s     0.9836   0.0005   0.0001  -0.0000  -0.1535   0.1666   0.0310
  23 O7  :1s     0.0990   0.0001   0.0013  -0.0005   0.1400  -0.1541  -0.0276
  24 O7  :1s    -0.0492   0.0013   0.0016   0.0002   0.4766  -0.5504  -0.1198
  25 O7  :2px   -0.0010  -0.0009  -0.0005  -0.0006  -0.0123   0.0218   0.0840
  26 O7  :2py    0.0037   0.0003   0.0008  -0.0003   0.0664  -0.0397   0.0206
  27 O7  :2px    0.0002   0.0051   0.0037   0.0013  -0.0240   0.0086   0.0606
  28 O7  :2py   -0.0113  -0.0023  -0.0036   0.0009   0.0937  -0.0609   0.0119
  29 H4  :1s    -0.0009   0.0009  -0.0012   0.0002   0.0055  -0.0006   0.0968
  30 H4  :1s    -0.0001   0.0027   0.0021   0.0147  -0.0074  -0.0088  -0.0060
  31 H5  :1s     0.0003  -0.0007  -0.0017   0.0002   0.0062   0.0017   0.1013
  32 H5  :1s     0.0002  -0.0013   0.0023   0.0146  -0.0041   0.0009  -0.0003
  33 H8  :1s     0.0032   0.0017   0.0011   0.0004   0.0588  -0.0782  -0.0589
  34 H8  :1s     0.0042  -0.0008   0.0010   0.0018   0.0115  -0.0110  -0.0280

    Orbital         8        9       10       11       12       13       14
   1 C1  :1s    -0.0768  -0.0219   0.0296  -0.0028   0.0080   0.0234   0.0795
   2 C1  :1s     0.0650   0.0127  -0.0184   0.0008  -0.0078  -0.0148  -0.0286
   3 C1  :1s     0.3039   0.1487  -0.2044   0.0407  -0.0735  -0.1827  -1.0628
   4 C1  :2px    0.1212   0.1335  -0.1645   0.0510   0.2018   0.1794   0.0173
   5 C1  :2py    0.0304  -0.1294   0.0235   0.3538   0.0539  -0.0613  -0.0336
   6 C1  :2px    0.0301   0.0346  -0.0862   0.0232   0.1602   0.1813  -0.0322
   7 C1  :2py    0.0179  -0.1235  -0.0135   0.2960   0.0482  -0.0770  -0.3124
   8 C2  :1s     0.1090   0.0853   0.0154   0.0153   0.0222   0.0174  -0.0274
   9 C2  :1s    -0.1333  -0.1162  -0.0386  -0.0218  -0.0173  -0.0181   0.0038
  10 C2  :1s    -0.3072  -0.2320   0.0521  -0.0337  -0.1170  -0.0662   0.2504
  11 C2  :2px    0.0329  -0.0656   0.2697  -0.0010  -0.2034  -0.1151  -0.0121
  12 C2  :2py    0.1502  -0.2197   0.0122  -0.1118   0.1602  -0.0180  -0.0930
  13 C2  :2px   -0.0525  -0.1533   0.2351  -0.0604  -0.0287   0.0444   0.1773
  14 C2  :2py    0.0739  -0.0366   0.0246  -0.0004  -0.0438   0.1164  -0.0262
  15 O3  :1s    -0.0438  -0.0953  -0.0506  -0.0185   0.0264  -0.0017   0.0090
  16 O3  :1s     0.0429   0.0891   0.0419   0.0199  -0.0288   0.0056  -0.0154
  17 O3  :1s     0.1632   0.3790   0.2365   0.0584  -0.0702  -0.0145  -0.0243
  18 O3  :2px   -0.0063  -0.2507   0.0881  -0.0864   0.1102   0.3809   0.0472
  19 O3  :2py    0.0721   0.1626   0.2405   0.1097  -0.2063   0.2396   0.0223
  20 O3  :2px    0.0001  -0.2309   0.0850  -0.0898   0.1376   0.4357   0.0402
  21 O3  :2py    0.0687   0.1636   0.2245   0.1243  -0.2220   0.2790   0.0255
  22 O7  :1s    -0.0311  -0.0170  -0.0567  -0.0061  -0.0637  -0.0131   0.0925
  23 O7  :1s     0.0309   0.0188   0.0540   0.0016   0.0603  -0.0074  -0.0485
  24 O7  :1s     0.1231   0.0732   0.2448   0.0427   0.2800   0.1576  -0.7992
  25 O7  :2px   -0.2631   0.1612   0.1267   0.0519   0.2434   0.0064   0.1757
  26 O7  :2py   -0.1818   0.0299  -0.2406   0.1099  -0.2295   0.2057  -0.0445
  27 O7  :2px   -0.2394   0.1823   0.1337   0.0697   0.2604   0.0272   0.4465
  28 O7  :2py   -0.1776   0.0189  -0.2520   0.1279  -0.2696   0.2889  -0.0623
  29 H4  :1s     0.0908  -0.0217  -0.0506   0.2493   0.0881  -0.0017   0.0454
  30 H4  :1s     0.0498   0.0066  -0.0062   0.2122   0.0898   0.0497   0.7874
  31 H5  :1s     0.0612   0.0788  -0.0609  -0.1181   0.0194   0.0478  -0.0268
  32 H5  :1s     0.0270   0.0583  -0.0372  -0.0976   0.0402   0.0615   0.2290
  33 H8  :1s     0.1821  -0.0927  -0.0469  -0.0361  -0.1417  -0.0152   0.0925
  34 H8  :1s     0.1123  -0.0593  -0.0063  -0.0353  -0.1092  -0.0580   1.2065

    Orbital        15       16       17       18       19       20       21
   1 C1  :1s     0.1360  -0.0223   0.0978   0.0459  -0.0097   0.0266   0.0375
   2 C1  :1s    -0.0363   0.0045  -0.0038   0.0062  -0.0534  -0.0870  -0.0942
   3 C1  :1s    -1.9242   0.3767  -1.4411  -1.0543   0.6603   0.3719  -0.4765
   4 C1  :2px   -0.1185   0.1259   0.1651  -0.0431   0.0918   0.5741   0.8197
   5 C1  :2py    0.0997   0.2512  -0.0731  -0.0053  -0.1430   0.3475  -0.1776
   6 C1  :2px   -0.5577   0.5745   1.6185   0.8154  -0.4072  -0.9497  -0.8424
   7 C1  :2py    0.5871   1.2251  -0.2532  -0.2993  -0.7399  -0.7298   0.2980
   8 C2  :1s    -0.0041  -0.0271  -0.1710   0.0634  -0.0092  -0.0134  -0.0391
   9 C2  :1s    -0.0410  -0.0009   0.0641   0.0280  -0.0831  -0.1233   0.1913
  10 C2  :1s     0.1703   0.4133   2.4370  -0.5464   0.4466  -0.0840  -0.6937
  11 C2  :2px    0.0024   0.0315   0.2072   0.3862   0.0251   0.4480  -0.2028
  12 C2  :2py    0.0468   0.0276  -0.0895   0.2259   0.2250   0.5594  -0.4727
  13 C2  :2px   -0.1248   0.1576   0.9853   1.6459  -0.9241  -0.9930   0.7621
  14 C2  :2py    0.0442  -0.0302  -0.2357   0.4717   2.0700  -0.2013   0.3050
  15 O3  :1s     0.0165   0.0148   0.0289  -0.0543   0.1217   0.0252  -0.0233
  16 O3  :1s    -0.0052  -0.0116  -0.0228   0.0254  -0.0314  -0.0166  -0.0012
  17 O3  :1s    -0.1728  -0.0994  -0.2215   0.6171  -1.6979  -0.2944   0.3395
  18 O3  :2px   -0.0612  -0.0189  -0.0921  -0.0970  -0.1290  -0.0132  -0.1315
  19 O3  :2py    0.0083   0.0520   0.0686  -0.1787   0.0669   0.0353  -0.0869
  20 O3  :2px   -0.0958  -0.0686  -0.2606  -0.2008  -0.4834   0.0107   0.0024
  21 O3  :2py    0.0710   0.0828   0.1336  -0.5272   0.5132   0.2196  -0.2624
  22 O7  :1s    -0.0202   0.0171   0.0305  -0.0771  -0.0507   0.0051   0.0156
  23 O7  :1s     0.0086   0.0034  -0.0158   0.0445   0.0108  -0.0044  -0.0531
  24 O7  :1s     0.1812  -0.2471  -0.2809   0.7631   0.6707  -0.1915   0.2667
  25 O7  :2px   -0.0713   0.1196  -0.1240   0.1053   0.1021  -0.0531  -0.0490
  26 O7  :2py    0.0106  -0.0013  -0.1251   0.2550   0.0177   0.0987  -0.0757
  27 O7  :2px   -0.1565   0.2317  -0.3849   0.2604   0.4160   0.0877   0.0330
  28 O7  :2py   -0.0269  -0.0071  -0.3042   0.7094   0.1964  -0.0339   0.0965
  29 H4  :1s    -0.0348  -0.0717  -0.0515  -0.0675  -0.1457   0.4816   0.0142
  30 H4  :1s     0.3604  -1.8609   0.1688   0.1985   0.5112   0.1698   0.0438
  31 H5  :1s     0.0255   0.0172  -0.0587  -0.0224   0.0637  -0.1025   0.2301
  32 H5  :1s     1.3086   0.4415  -0.1624  -0.0067  -0.3358   0.0198   0.1078
  33 H8  :1s    -0.0293  -0.0103  -0.0096   0.0786  -0.0980   0.1739   0.2699
  34 H8  :1s    -0.4001   0.4830  -0.2949   0.3862   0.1542  -0.3089  -0.0114

    Orbital        22       23
   1 C1  :1s    -0.0164  -0.0146
   2 C1  :1s     0.0068   0.0464
   3 C1  :1s    -0.0269  -0.8130
   4 C1  :2px   -0.1683  -0.0087
   5 C1  :2py    0.7627  -0.0423
   6 C1  :2px    0.2322   0.5274
   7 C1  :2py   -1.9618   0.0161
   8 C2  :1s     0.0000  -0.0522
   9 C2  :1s     0.1184   0.1984
  10 C2  :1s     0.0859   0.7240
  11 C2  :2px   -0.3367  -0.8929
  12 C2  :2py   -0.4822   0.7290
  13 C2  :2px    0.4917   1.4377
  14 C2  :2py    1.8440  -0.5225
  15 O3  :1s     0.0267   0.0417
  16 O3  :1s     0.0003  -0.0504
  17 O3  :1s    -0.6693   0.1447
  18 O3  :2px    0.0114  -0.2191
  19 O3  :2py   -0.0674   0.1909
  20 O3  :2px   -0.2628  -0.3331
  21 O3  :2py    0.0106   0.2795
  22 O7  :1s    -0.0085   0.0107
  23 O7  :1s    -0.0524  -0.0181
  24 O7  :1s     0.7290  -0.1004
  25 O7  :2px   -0.0678   0.0538
  26 O7  :2py   -0.0879   0.0617
  27 O7  :2px    0.2344  -0.0984
  28 O7  :2py    0.2160   0.0681
  29 H4  :1s     0.2925  -0.0022
  30 H4  :1s     0.4691  -0.0382
  31 H5  :1s    -0.2408  -0.0687
  32 H5  :1s    -0.3221  -0.0478
  33 H8  :1s     0.2037   0.1541
  34 H8  :1s     0.0568   0.0879

 Molecular orbitals for symmetry species 2  (A" )
 ------------------------------------------------

    Orbital         1        2        3        4        5        6        7
   1 C1  :2pz    0.2236   0.3034   0.0552   0.0263  -0.3048   0.4405  -0.6549
   2 C1  :2pz    0.1601   0.3046   0.0422   0.3433  -1.4466  -0.7422   1.5224
   3 C2  :2pz    0.2329  -0.0938  -0.1517   0.4109   0.1660   0.8269   0.6692
   4 C2  :2pz    0.2171  -0.1405  -0.1501   0.6043   0.5055  -0.6291  -1.2031
   5 O3  :2pz    0.1822  -0.1062  -0.3618  -0.2905  -0.0942   0.0102   0.0861
   6 O3  :2pz    0.1802  -0.1065  -0.4368  -0.4878  -0.2125   0.0606   0.1788
   7 O7  :2pz    0.2594  -0.2813   0.3253  -0.1551  -0.0952   0.0346   0.0937
   8 O7  :2pz    0.2790  -0.3226   0.4201  -0.2544  -0.1482   0.0852   0.1380
   9 H5  :1s     0.1192   0.1818   0.0391  -0.0974   0.0255   0.3803  -0.3730
  10 H5  :1s     0.0985   0.1416   0.0693  -0.4970   1.4248   0.0212  -0.2097

    Orbital         8        9       10
   1 C1  :2pz   -0.8343   0.0627  -0.0255
   2 C1  :2pz    0.9363  -0.2058   0.3366
   3 C2  :2pz   -0.0990  -0.0262   0.0885
   4 C2  :2pz    0.0839   0.1773  -0.6768
   5 O3  :2pz   -0.0732  -0.4920  -0.9197
   6 O3  :2pz    0.0233   0.4129   1.0663
   7 O7  :2pz    0.0272   0.9093  -0.4870
   8 O7  :2pz   -0.0330  -0.9129   0.6236
   9 H5  :1s     0.7721  -0.0419  -0.0811
  10 H5  :1s    -1.1619   0.1664  -0.0491

  Total CPU  time used in SIRIUS :   0.10 seconds
  Total wall time used in SIRIUS :   0.10 seconds

 
     Date and time (Linux)  : Mon May  4 22:23:49 2026
     Host name              : debian                                  


                     .---------------------------------------.
                     | End of Wave Function Section (SIRIUS) |
                     `---------------------------------------'

  Total CPU  time used in DALTON:   0.15 seconds
  Total wall time used in DALTON:   0.15 seconds

 
     Date and time (Linux)  : Mon May  4 22:23:49 2026
     Host name              : debian                                  
