

     ************************************************************************
     *************** Dalton - An Electronic Structure Program ***************
     ************************************************************************

    This is output from DALTON release Dalton2025.0-dev (2025)
         ( Web site: http://daltonprogram.org )

   ----------------------------------------------------------------------------

    NOTE:
     
    Dalton is an experimental code for the evaluation of molecular
    properties using (MC)SCF, DFT, CI, and CC wave functions.
    The authors accept no responsibility for the performance of
    the code or for the correctness of the results.
     
    The code (in whole or part) is provided under a licence and
    is not to be reproduced for further distribution without
    the written permission of the authors or their representatives.
     
    See the home page "http://daltonprogram.org" for further information.
     
    If results obtained with this code are published,
    the appropriate citations would be both of:
     
       K. Aidas, C. Angeli, K. L. Bak, V. Bakken,
       R. Bast, L. Boman, O. Christiansen, R. Cimiraglia,
       S. Coriani, P. Dahle, E. K. Dalskov, U. Ekstroem,
       T. Enevoldsen, J. J. Eriksen, P. Ettenhuber, B. Fernandez,
       L. Ferrighi, H. Fliegl, L. Frediani, K. Hald, A. Halkier,
       C. Haettig, H. Heiberg, T. Helgaker, A. C. Hennum,
       H. Hettema, E. Hjertenaes, S. Hoest, I.-M. Hoeyvik,
       M. F. Iozzi, B. Jansik, H. J. Aa. Jensen, D. Jonsson,
       P. Joergensen, J. Kauczor, S. Kirpekar,
       T. Kjaergaard, W. Klopper, S. Knecht, R. Kobayashi, H. Koch,
       J. Kongsted, A. Krapp, K. Kristensen, A. Ligabue,
       O. B. Lutnaes, J. I. Melo, K. V. Mikkelsen, R. H. Myhre,
       C. Neiss, C. B. Nielsen, P. Norman, J. Olsen,
       J. M. H. Olsen, A. Osted, M. J. Packer, F. Pawlowski,
       T. B. Pedersen, P. F. Provasi, S. Reine, Z. Rinkevicius,
       T. A. Ruden, K. Ruud, V. Rybkin, P. Salek, C. C. M. Samson,
       A. Sanchez de Meras, T. Saue, S. P. A. Sauer,
       B. Schimmelpfennig, K. Sneskov, A. H. Steindal,
       K. O. Sylvester-Hvid, P. R. Taylor, A. M. Teale,
       E. I. Tellgren, D. P. Tew, A. J. Thorvaldsen, L. Thoegersen,
       O. Vahtras, M. A. Watson, D. J. D. Wilson, M. Ziolkowski
       and H. Agren,
       "The Dalton quantum chemistry program system",
       WIREs Comput. Mol. Sci. 2014, 4:269-284 (doi: 10.1002/wcms.1172)
     
    and
     
       Dalton, a molecular electronic structure program,
       Release Dalton2025.0-dev (2025), see http://daltonprogram.org
   ----------------------------------------------------------------------------

    Authors in alphabetical order (Major contribution(s) in parenthesis):

  Kestutis Aidas,              Vilnius University,        Lithuania   (QM/MM)
  Celestino Angeli,            University of Ferrara,     Italy       (NEVPT2)
  Juan J. Aucar,               Northeast National UniversiArgentina   (LRESC, Relativistic Effects on NMR Shieldings and EFG)
  Keld L. Bak,                 UNI-C,                     Denmark     (AOSOPPA, non-adiabatic coupling, magnetic properties)
  Vebjoern Bakken,             University of Oslo,        Norway      (DALTON; geometry optimizer, symmetry detection)
  Radovan Bast,                UiT The Arctic U. of NorwayNorway      (DALTON installation and execution frameworks)
  Pablo Baudin,                University of Valencia,    Spain       (Cholesky excitation energies)
  Linus Boman,                 NTNU,                      Norway      (Cholesky decomposition and subsystems)
  Bruno N. Cabral Tenorio,     Technical Univ. of Denmark,Denmark     (Lanczos-based CC methods)
  Ove Christiansen,            Aarhus University,         Denmark     (CC module)
  Renzo Cimiraglia,            University of Ferrara,     Italy       (NEVPT2)
  Sonia Coriani,               Technical Univ. of Denmark,Denmark     (CC and RESPONS modules)
  Janusz Cukras,               University of Warsaw,      Poland      (MChD in RESPONS)
  Paal Dahle,                  University of Oslo,        Norway      (Parallelization)
  Erik K. Dalskov,             UNI-C,                     Denmark     (SOPPA)
  Thomas Enevoldsen,           Univ. of Southern Denmark, Denmark     (SOPPA)
  Janus J. Eriksen,            Aarhus University,         Denmark     (Polarizable embedding, TDA)
  Rasmus Faber,                Technical Univ. of Denmark,Denmark     (Vib.avg. NMR w. SOPPA, parallel AO-SOPPA, CVS-CC and EOMCC)
  Tobias Fahleson,             KTH Stockholm,             Sweden      (Damped cubic response)
  Berta Fernandez,             U. of Santiago de CompostelSpain       (Doublet spin, ESR in RESPONS)
  Lara Ferrighi,               Aarhus University,         Denmark     (PCM Cubic response)
  Heike Fliegl,                University of Oslo,        Norway      (CCSD(R12))
  Luca Frediani,               UiT The Arctic U. of NorwayNorway      (PCM)
  Emmanuel Fromager,           Univ. Strasbourg,          France      (MC-srDFT)
  Bin Gao,                     UiT The Arctic U. of NorwayNorway      (Gen1Int library)
  Andre S. P. Gomes,           CNRS/Universite de Lille,  France      (Frozen density embedding)
  Christof Haettig,            Ruhr-University Bochum,    Germany     (CC module)
  Kasper Hald,                 Aarhus University,         Denmark     (CC module)
  Asger Halkier,               Aarhus University,         Denmark     (CC module)
  Frederik Beyer Hansen,       University of Copenhagen,  Denmark     (Parallel AO-SOPPA)
  Erik D. Hedegaard,           Univ. of Southern Denmark, Denmark     (Polarizable embedding, QM/MM, and MC-srDFT)
  Hanne Heiberg,               University of Oslo,        Norway      (Geometry analysis, selected one-electron integrals)
  Trygve Helgaker,             University of Oslo,        Norway      (DALTON; ABACUS, ERI, DFT modules, London, and much more)
  Alf Christian Hennum,        University of Oslo,        Norway      (Parity violation)
  Hinne Hettema,               University of Auckland,    New Zealand (Quadratic response in RESPONS; SIRIUS supersymmetry)
  Andreas E. Hillers-Bendtsen, University of Copenhagen,  Denmark     (MP3)
  Eirik Hjertenaes,            NTNU,                      Norway      (Cholesky decomposition)
  Nicolai Machholdt Hoeyer,    Aarhus University,         Denmark     (MP3)
  Pi A. B. Haase,              University of Copenhagen,  Denmark     (Triplet AO-SOPPA)
  Maria Francesca Iozzi,       University of Oslo,        Norway      (RPA)
  Christoph Jacob,             TU Braunschweig            Germany     (Frozen density embedding)
  Brano Jansik,                Technical Univ. of Ostrava Czech Rep.  (DFT cubic response)
  Hans Joergen Aa. Jensen,     Univ. of Southern Denmark, Denmark     (DALTON; SIRIUS, RESPONS, ABACUS, MC-srDFT, and much more)
  Dan Jonsson,                 UiT The Arctic U. of NorwayNorway      (Cubic response in RESPONS module)
  Poul Joergensen,             Aarhus University,         Denmark     (RESPONS, ABACUS, and CC modules)
  Maciej Kaminski,             University of Warsaw,      Poland      (CPPh in RESPONS)
  Joanna Kauczor,              Linkoeping University,     Sweden      (Complex polarization propagator (CPP) module)
  Sheela Kirpekar,             Univ. of Southern Denmark, Denmark     (Mass-velocity & Darwin integrals)
  Frederik Oersted Kjeldal,    Technical Univ. of Denmark,Denmark     (MP3)
  Erik Kjellgren,              Univ. of Southern Denmark, Denmark     (MC-srDFT)
  Wim Klopper,                 KIT Karlsruhe,             Germany     (R12 code in CC, SIRIUS, and ABACUS modules)
  Stefan Knecht,               ETH Zurich,                Switzerland (Parallel CI and MCSCF, MC-srDFT)
  Rika Kobayashi,              Australian National Univ., Australia   (DIIS in CC, London in MCSCF)
  Henrik Koch,                 NTNU,                      Norway      (CC module, Cholesky decomposition)
  Jacob Kongsted,              Univ. of Southern Denmark, Denmark     (Polarizable embedding, polarizable density embedding, QM/MM)
  Andrea Ligabue,              University of Modena,      Italy       (CTOCD, AOSOPPA)
  Nanna H. List,               Univ. of Southern Denmark, Denmark     (Polarizable embedding)
  Ola B. Lutnaes,              University of Oslo,        Norway      (DFT Hessian)
  Juan I. Melo,                University of Buenos Aires,Argentina   (LRESC, Relativistic Effects on NMR Shieldings)
  Kurt V. Mikkelsen,           University of Copenhagen,  Denmark     (MC-SCRF, QM/MM, and MP3)
  Rolf H. Myhre,               NTNU,                      Norway      (Subsystems and CC3)
  Christian Neiss,             Univ. Erlangen-Nuernberg,  Germany     (CCSD(R12))
  Christian B. Nielsen,        University of Copenhagen,  Denmark     (QM/MM)
  Patrick Norman,              KTH Stockholm,             Sweden      (Cubic response and complex frequency response in RESPONS)
  Jeppe Olsen,                 Aarhus University,         Denmark     (SIRIUS CI/density modules)
  Jogvan Magnus H. Olsen,      Aarhus University,         Denmark     (Polarizable embedding and polarizable density embedding)
  Anders Osted,                Copenhagen University,     Denmark     (QM/MM)
  Martin J. Packer,            University of Sheffield,   UK          (SOPPA)
  Filip Pawlowski,             Kazimierz Wielki UniversityPoland      (CC3)
  Morten N. Pedersen,          Univ. of Southern Denmark, Denmark     (Polarizable embedding)
  Thomas B. Pedersen,          University of Oslo,        Norway      (Cholesky decomposition)
  Patricio F. Provasi,         University of Northeastern,Argentina   (Analysis of coupling constants in localized orbitals)
  Peter Reinholdt,             Univ. of Southern Denmark, Denmark     (Polarizable embedding and polarizable density embedding)
  Zilvinas Rinkevicius,        KTH Stockholm,             Sweden      (open-shell DFT, ESR)
  Elias Rudberg,               KTH Stockholm,             Sweden      (DFT grid and basis info)
  Torgeir A. Ruden,            University of Oslo,        Norway      (Numerical derivatives in ABACUS)
  Kenneth Ruud,                UiT The Arctic U. of NorwayNorway      (DALTON; ABACUS magnetic properties and much more)
  Pawel Salek,                 KTH Stockholm,             Sweden      (DALTON; DFT code)
  Claire C. M. Samson,         University of Karlsruhe    Germany     (Boys localization, r12 integrals in ERI)
  Alfredo Sanchez de Meras,    University of Valencia,    Spain       (CC module, Cholesky decomposition)
  Trond Saue,                  Paul Sabatier University,  France      (direct Fock matrix construction)
  Stephan P. A. Sauer,         University of Copenhagen,  Denmark     (SOPPA(CCSD), SOPPA prop., AOSOPPA, vibrational g-factors)
  Bernd Schimmelpfennig,       Forschungszentrum KarlsruheGermany     (AMFI module)
  Anna K. Schnack-Petersen,    University of Copenhagen,  Denmark     (RPA(D) and HRPA(D) properties in AOSOPPA)
  Kristian Sneskov,            Aarhus University,         Denmark     (Polarizable embedding, QM/MM)
  Arnfinn H. Steindal,         UiT The Arctic U. of NorwayNorway      (parallel QM/MM, polarizable embedding)
  Casper Steinmann,            Aalborg University,        Denmark     (QFIT, polarizable embedding)
  K. O. Sylvester-Hvid,        University of Copenhagen,  Denmark     (MC-SCRF)
  Peter R. Taylor,             VLSCI/Univ. of Melbourne,  Australia   (Symmetry handling ABACUS, integral transformation)
  Andrew M. Teale,             University of Nottingham,  England     (DFT-AC, DFT-D)
  David P. Tew,                University of Bristol,     England     (CCSD(R12))
  Julien Toulouse,             Sorbonne Univ.,            France      (MC-srDFT)
  Olav Vahtras,                KTH Stockholm,             Sweden      (Triplet response, spin-orbit, ESR, TDDFT, open-shell DFT)
  Lucas Visscher,              Vrije Universiteit AmsterdaNetherlands (Frozen density embedding)
  David J. Wilson,             La Trobe University,       Australia   (DFT Hessian and DFT magnetizabilities)
  Luna Zamok,                  University of Copenhagen,  Denmark     (Block Lanczos RPA solver in SOPPA module)
  Hans Agren,                  KTH Stockholm,             Sweden      (SIRIUS module, RESPONS, MC-SCRF solvation)
 --------------------------------------------------------------------------------

     Date and time (Linux)  : Mon May  4 21:03:21 2026
     Host name              : debian                                  

 * Work memory size             :    64000000 =  488.28 megabytes.

 * Directories for basis set searches:
   1) /home/vdwv/DIPLOM_ITMO/CALCULATIONS_AND_SOFTS/softwares/Dalton_Shenanigans/dalton/dalton/build
   2) /home/vdwv/DIPLOM_ITMO/CALCULATIONS_AND_SOFTS/softwares/Dalton_Shenanigans/dalton/dalton/build/basis


Compilation information
-----------------------

 Who compiled             | vdwv
 Host                     | debian
 System                   | Linux-6.12.73+deb13-amd64
 CMake generator          | Unix Makefiles
 Processor                | x86_64
 64-bit integers          | OFF
 MPI                      | OFF
 Fortran compiler         | /usr/bin/gfortran
 Fortran compiler version | GNU Fortran (Debian 14.2.0-19) 14.2.0
 C compiler               | /usr/bin/gcc
 C compiler version       | gcc (Debian 14.2.0-19) 14.2.0
 C++ compiler             | /usr/bin/g++
 C++ compiler version     | g++ (Debian 14.2.0-19) 14.2.0
 BLAS                     | /opt/intel/oneapi/mkl/2025.3/lib/intel64/libmkl_gf
                          | _lp64.so;/opt/intel/oneapi/mkl/2025.3/lib/intel64/
                          | libmkl_sequential.so;/opt/intel/oneapi/mkl/2025.3/
                          | lib/intel64/libmkl_core.so;/usr/lib/x86_64-linux-g
                          | nu/libpthread.a;/usr/lib/x86_64-linux-gnu/libm.so
 LAPACK                   | /opt/intel/oneapi/mkl/2025.3/lib/intel64/libmkl_la
                          | pack95_lp64.a;/opt/intel/oneapi/mkl/2025.3/lib/int
                          | el64/libmkl_gf_lp64.so
 Static linking           | OFF
 Last Git revision        | 1892235f9264b9be21ec2fefe6e0081d659ab244
 Git branch               | master
 Configuration time       | 2026-05-04 17:50:26.788788

 * Sequential calculation.


   Content of the .dal input file
 ----------------------------------

BASIS
cc-pVDZ
Methane CH4 using the cc-pVDZ basis
Using automatic symmetry detection
AtomTypes=2 Angstrom
Charge=6.0 Atoms=1
C     0.000      0.000      0.000
Charge=1.0 Atoms=4
H1    0.630      0.630      0.630
H2   -0.630     -0.630      0.630
H3   -0.630      0.630     -0.630
H4    0.630     -0.630     -0.630

**DALTON INPUT
.RUN WAVE FUN
**WAVE FUN
.HF
**END OF


       *******************************************************************
       *********** Output from DALTON general input processing ***********
       *******************************************************************

 --------------------------------------------------------------------------------
   Overall default print level:    0
   Print level for DALTON.STAT:    1

    HERMIT 1- and 2-electron integral sections will be executed
    "Old" integral transformation used (limited to max 255 basis functions)
    Wave function sections will be executed (SIRIUS module)
 --------------------------------------------------------------------------------


   ****************************************************************************
   *************** Output of molecule and basis set information ***************
   ****************************************************************************


    The two title cards from your ".mol" input:
    --------------------------------------------------------------------------------
 1: Methane CH4 using the cc-pVDZ basis
 2: Using automatic symmetry detection
    --------------------------------------------------------------------------------

  Coordinates are entered in Angstrom and converted to atomic units.
          - Conversion factor : 1 bohr = 0.52917721080 A

  Atomic type no.    1
  --------------------
  Nuclear charge:   6.00000
  Number of symmetry independent centers:    1
  Number of basis sets to read;    2
  Basis set file used for this atomic type with Z =   6 :
     "/home/vdwv/DIPLOM_ITMO/CALCULATIONS_AND_SOFTS/softwares/Dalton_Shenanigans/dalton/dalton/build/basis/cc-pVDZ"

  Atomic type no.    2
  --------------------
  Nuclear charge:   1.00000
  Number of symmetry independent centers:    4
  Number of basis sets to read;    2
  Basis set file used for this atomic type with Z =   1 :
     "/home/vdwv/DIPLOM_ITMO/CALCULATIONS_AND_SOFTS/softwares/Dalton_Shenanigans/dalton/dalton/build/basis/cc-pVDZ"


                      SYMADD: Addition of symmetry requested
                      --------------------------------------

 Symmetry test threshold:  5.00E-06

@  The molecule has been centered at center of mass and rotated
@  so the principal axes of inertia are along coordinate axes.

 Symmetry class found: T(d)           

 Symmetry Independent Centres             
 ----------------------------
C      6 :      0.00000000     0.00000000     0.00000000  Isotope  1
H2     1 :      1.68366008    -0.97206160    -0.68735135  Isotope  1
H3     1 :      0.00000000     1.94412320    -0.68735135  Isotope  1
H4     1 :      0.00000000     0.00000000     2.06205405  Isotope  1

 The following symmetry element was found:   X        


                         SYMGRP: Point group information
                         -------------------------------

@    Full point group is: T(d)           
@    Represented as:      Cs 

@  * The irrep name for each symmetry:    1: A'     2: A" 

   * The point group was generated by:

      Reflection in the yz-plane

   * Group multiplication table

        |  E   Oyz
   -----+----------
     E  |  E   Oyz
    Oyz | Oyz   E 

   * Character table

        |  E   Oyz
   -----+----------
    A'  |   1    1
    A"  |   1   -1

   * Direct product table

        | A'   A" 
   -----+----------
    A'  | A'   A" 
    A"  | A"   A' 


                                 Isotopic Masses
                                 ---------------

                           C          12.000000
                           H2  _1      1.007825
                           H2  _2      1.007825
                           H3          1.007825
                           H4          1.007825

                       Total mass:    16.031300 amu
                       Natural abundance:  98.841 %

 Center-of-mass coordinates (a.u.):    0.000000   -0.000000    0.000000
 Center-of-mass coordinates (Angs):    0.000000   -0.000000    0.000000


  Atoms and basis sets
  --------------------

  Number of atom types :    2
  Total number of atoms:    5

  Basis set used is "cc-pVDZ" from the basis set library.

  label    atoms   charge   prim   cont     basis
  ----------------------------------------------------------------------
  C           1    6.0000    26    14      [9s4p1d|3s2p1d]                                    
  H4          4    1.0000     7     5      [4s1p|2s1p]                                        
  ----------------------------------------------------------------------
  total:      5   10.0000    54    34
  ----------------------------------------------------------------------
  Spherical harmonic basis used.

  Threshold for neglecting AO integrals:  1.00D-12


  Cartesian Coordinates (bohr)
  ----------------------------

  Total number of coordinates:   15
  C       :     1  x   0.0000000000    2  y   0.0000000000    3  z   0.0000000000
  H2  / 1 :     4  x   1.6836600785    5  y  -0.9720615996    6  z  -0.6873513488
  H2  / 2 :     7  x  -1.6836600785    8  y  -0.9720615996    9  z  -0.6873513488
  H3      :    10  x   0.0000000000   11  y   1.9441231991   12  z  -0.6873513488
  H4      :    13  x   0.0000000000   14  y   0.0000000000   15  z   2.0620540464


  Cartesian Coordinates (xyz format; angstrom)
  --------------------------------------------

    5

  C        0.0000000000            0.0000000000            0.0000000000
  H        0.8909545443           -0.5143928460           -0.3637306696
  H       -0.8909545443           -0.5143928460           -0.3637306696
  H        0.0000000000            1.0287856920           -0.3637306696
  H        0.0000000000            0.0000000000            1.0911920088


  Symmetry Coordinates
  --------------------

  Number of coordinates in each symmetry:     9    6

  Symmetry  A'  ( 1)

    1   C     y    2
    2   C     z    3
    3   H2    x    [  4  -    7 ]/2
    4   H2    y    [  5  +    8 ]/2
    5   H2    z    [  6  +    9 ]/2
    6   H3    y   11
    7   H3    z   12
    8   H4    y   14
    9   H4    z   15

  Symmetry  A"  ( 2)

   10   C     x    1
   11   H2    x    [  4  +    7 ]/2
   12   H2    y    [  5  -    8 ]/2
   13   H2    z    [  6  -    9 ]/2
   14   H3    x   10
   15   H4    x   13


   Interatomic separations (in Angstrom):
   --------------------------------------

            C           H2  _1      H2  _2      H3          H4    
            ------      ------      ------      ------      ------
 C     :    0.000000
 H2  _1:    1.091192    0.000000
 H2  _2:    1.091192    1.781909    0.000000
 H3    :    1.091192    1.781909    1.781909    0.000000
 H4    :    1.091192    1.781909    1.781909    1.781909    0.000000


  Max    interatomic separation is    1.7819 Angstrom (    3.3673 Bohr)
  between atoms    4 and    2, "H3    " and "H2  _1".

  Min HX interatomic separation is    1.0912 Angstrom (    2.0621 Bohr)


  Bond distances (Angstrom):
  --------------------------

                  atom 1     atom 2       distance
                  ------     ------       --------
  bond distance:  H2  _1     C            1.091192
  bond distance:  H2  _2     C            1.091192
  bond distance:  H3         C            1.091192
  bond distance:  H4         C            1.091192


  Bond angles (degrees):
  ----------------------

                  atom 1     atom 2     atom 3         angle
                  ------     ------     ------         -----
  bond angle:     H2  _1     C          H2  _2       109.471
  bond angle:     H2  _1     C          H3           109.471
  bond angle:     H2  _1     C          H4           109.471
  bond angle:     H2  _2     C          H3           109.471
  bond angle:     H2  _2     C          H4           109.471
  bond angle:     H3         C          H4           109.471




 Principal moments of inertia (u*A**2) and principal axes
 --------------------------------------------------------

   IA       3.200046          0.000000    1.000000    0.000000
   IB       3.200046          0.000000    0.000000    1.000000
   IC       3.200046          1.000000    0.000000    0.000000


 Rotational constants
 --------------------

               A                   B                   C

         157928.6721         157928.6721         157928.6721 MHz
            5.267933            5.267933            5.267933 cm-1


@  Nuclear repulsion energy :   13.420712547815 Hartree


  Symmetry Orbitals
  -----------------

  Number of orbitals in each symmetry:          23   11


  Symmetry  A' ( 1)

    1     C        1s         1
    2     C        1s         2
    3     C        1s         3
    4     C        2py        5
    5     C        2pz        6
    6     C        2py        8
    7     C        2pz        9
    8     C        3d1-      11
    9     C        3d0       12
   10     C        3d2+      14
   11     H2       1s        15 +   16
   12     H2       1s        17 +   18
   13     H2       2px       19 -   20
   14     H2       2py       21 +   22
   15     H2       2pz       23 +   24
   16     H3       1s        25
   17     H3       1s        26
   18     H3       2py       28
   19     H3       2pz       29
   20     H4       1s        30
   21     H4       1s        31
   22     H4       2py       33
   23     H4       2pz       34


  Symmetry  A" ( 2)

   24     C        2px        4
   25     C        2px        7
   26     C        3d2-      10
   27     C        3d1+      13
   28     H2       1s        15 -   16
   29     H2       1s        17 -   18
   30     H2       2px       19 +   20
   31     H2       2py       21 -   22
   32     H2       2pz       23 -   24
   33     H3       2px       27
   34     H4       2px       32

  Symmetries of electric field:  A" (2)  A' (1)  A' (1)

  Symmetries of magnetic field:  A' (1)  A" (2)  A" (2)


                     .---------------------------------------.
                     | Starting in Integral Section (HERMIT) |
                     `---------------------------------------'



 ***************************************************************************************
 ****************** Output from **INTEGRALS input processing (HERMIT) ******************
 ***************************************************************************************


 - Using defaults, no **INTEGRALS input found

 Default print level:        1

 Calculation of one- and two-electron Hamiltonian integrals.

 Center of mass  (bohr):      0.000000000000     -0.000000000000      0.000000000000
 Operator center (bohr):      0.000000000000      0.000000000000      0.000000000000
 Gauge origin    (bohr):      0.000000000000     -0.000000000000      0.000000000000
 Dipole origin   (bohr):      0.000000000000     -0.000000000000      0.000000000000

Calculation of 2-electron integrals are postponed until they are needed.


     ************************************************************************
     ************************** Output from HERINT **************************
     ************************************************************************



                      Nuclear contribution to dipole moments
                      --------------------------------------

                 au               Debye          C m (/(10**-30)

      y     -0.00000000        -0.00000000        -0.00000000
      z      0.00000000         0.00000000         0.00000000


  Total CPU  time used in HERMIT:   0.02 seconds
  Total wall time used in HERMIT:   0.02 seconds


                        .----------------------------------.
                        | End of Integral Section (HERMIT) |
                        `----------------------------------'



                   .--------------------------------------------.
                   | Starting in Wave Function Section (SIRIUS) |
                   `--------------------------------------------'


 *** Output from Huckel module :

     Using EWMO model:          F
     Using EHT  model:          T
     Number of Huckel orbitals each symmetry:    7    2

 Huckel EHT eigenvalues for symmetry :  1
          -11.380888      -1.223968      -0.609477      -0.609477      -0.225345
           -0.204189      -0.204189

 Huckel EHT eigenvalues for symmetry :  2
           -0.609477      -0.204189

 **********************************************************************
 *SIRIUS* a direct, restricted step, second order MCSCF program       *
 **********************************************************************

 
     Date and time (Linux)  : Mon May  4 21:03:21 2026
     Host name              : debian                                  

 Title lines from ".mol" input file:
     Methane CH4 using the cc-pVDZ basis
     Using automatic symmetry detection

 Print level on unit LUPRI =   2 is   0
 Print level on unit LUW4  =   2 is   5

@    Restricted, closed shell Hartree-Fock calculation.

 Initial molecular orbitals are obtained according to
 ".MOSTART EHT   " input option

     Wave function specification
     ============================
@    Wave function type        --- HF ---
@    Number of closed shell electrons          10
@    Number of electrons in active shells       0
@    Total charge of the molecule               0

@    Spin multiplicity and 2 M_S                1         0
@    Total number of symmetries                 2 (point group: Cs )
@    Reference state symmetry                   1 (irrep name : A' )

     Orbital specifications
     ======================
@    Abelian symmetry species          All |    1    2
@                                          |  A'   A" 
                                       --- |  ---  ---
@    Total number of orbitals           34 |   23   11
@    Number of basis functions          34 |   23   11

      ** Automatic occupation of RHF orbitals **

      -- Initial occupation of symmetries is determined from extended Huckel guess.           
      -- Initial occupation of symmetries is :
@    Occupied SCF orbitals               5 |    4    1

     Maximum number of Fock   iterations      0
     Maximum number of DIIS   iterations     60
     Maximum number of QC-SCF iterations     60
     Threshold for SCF convergence     1.00D-05


 ***********************************************
 ***** DIIS acceleration of SCF iterations *****
 ***********************************************

 C1-DIIS algorithm; max error vectors =    8

 Automatic occupation of symmetries with  10 electrons.

 Iter     Total energy    Error norm  Delta(E)    SCF occupation
 -----------------------------------------------------------------------------

Calculating AOSUPINT

---> (Re)generating AOTWOINT


     ************************************************************************
     ************************** Output from HERINT **************************
     ************************************************************************


***  INFO  GETGAB: GABSO--- not found on AOGABINT. Regenerating.

 Threshold for neglecting two-electron integrals:  1.00D-12
 HERMIT - Number of two-electron integrals written:       83431 ( 47.1% )
 HERMIT - Megabytes written:                              0.961

     (Precalculated AO two-electron integrals are transformed to P-supermatrix elements.
      Threshold for discarding integrals :  1.00D-12 )

@  1  -39.9878630215       1.78D+00  -4.00D+01     4   1
      Virial theorem: -V/T =      2.030039
@    MULPOP   C       0.35; H2  _1 -0.09; H2  _2 -0.09; H3     -0.09; H4     -0.09; 
   1  Level shift: doubly occupied orbital energies shifted by -2.00D-01
 -----------------------------------------------------------------------------
@  2  -40.1829793800       4.75D-01  -1.95D-01     4   1
      Virial theorem: -V/T =      1.997407
@    MULPOP   C      -0.26; H2  _1  0.06; H2  _2  0.06; H3      0.06; H4      0.06; 
   2  Level shift: doubly occupied orbital energies shifted by -1.00D-01
 -----------------------------------------------------------------------------
@  3  -40.1975398023       9.87D-02  -1.46D-02     4   1
      Virial theorem: -V/T =      2.005207
@    MULPOP   C      -0.13; H2  _1  0.03; H2  _2  0.03; H3      0.03; H4      0.03; 
   3  Level shift: doubly occupied orbital energies shifted by -2.50D-02
 -----------------------------------------------------------------------------
@  4  -40.1986443500       2.18D-02  -1.10D-03     4   1
      Virial theorem: -V/T =      2.002999
@    MULPOP   C      -0.15; H2  _1  0.04; H2  _2  0.04; H3      0.04; H4      0.04; 
 -----------------------------------------------------------------------------
@  5  -40.1987108613       2.24D-03  -6.65D-05     4   1
      Virial theorem: -V/T =      2.002579
@    MULPOP   C      -0.15; H2  _1  0.04; H2  _2  0.04; H3      0.04; H4      0.04; 
 -----------------------------------------------------------------------------
@  6  -40.1987115225       1.89D-04  -6.61D-07     4   1
      Virial theorem: -V/T =      2.002549
@    MULPOP   C      -0.14; H2  _1  0.04; H2  _2  0.04; H3      0.04; H4      0.04; 
 -----------------------------------------------------------------------------
@  7  -40.1987115268       1.45D-05  -4.37D-09     4   1
      Virial theorem: -V/T =      2.002545
@    MULPOP   C      -0.14; H2  _1  0.04; H2  _2  0.04; H3      0.04; H4      0.04; 
 -----------------------------------------------------------------------------
@  8  -40.1987115268       2.63D-06  -2.42D-11     4   1

@ *** DIIS converged in   8 iterations !
@     Converged SCF energy, gradient:    -40.198711526848    2.63D-06
    - total time used in SIRFCK :              0.00 seconds


 *** SCF orbital energy analysis ***

 Only the 20 lowest virtual orbital energies printed in each symmetry.

 Number of electrons        :   10
 Closed shell orbitals      :    4    1

 Sym       Hartree-Fock orbital energies

1 A'    -11.21676163    -0.94151663    -0.54226531    -0.54226531     0.19287544
          0.27383741     0.27383741     0.58953197     0.58953197     0.88856179
          0.88856180     0.93222468     1.13136122     1.25623126     1.68490554
          1.89232359     1.89232359     2.21005011     2.21005011     2.54138128
          2.74524384     2.79162682     2.79162682

2 A"     -0.54226531     0.27383741     0.58953197     0.88856179     1.13136122
          1.68490554     1.68490554     1.89232359     2.21005011     2.54138128
          2.79162682

    E(LUMO) :     0.19287544 au (symmetry 1)
  - E(HOMO) :    -0.54226531 au (symmetry 1)
  ------------------------------------------
    gap     :     0.73514075 au

 --- Writing SIRIFC interface file

--------------------------------------------------------------------------------


     .--------------------------------------------------.
     | HF-SCF KT IPs [a.u. & eV] from Koopmans' theorem |
     `--------------------------------------------------'


     HF-SCF KT symmetry 1 ( A' ) in point group Cs  -- 4 principal poles with pole strength 1

   ============  ============  ============  ============
      11.216762      0.941517      0.542265      0.542265
     305.223610     25.619971     14.755790     14.755790
   ============  ============  ============  ============

     HF-SCF KT symmetry 2 ( A" ) in point group Cs  -- 1 principal poles with pole strength 1

   ============
       0.542265
      14.755790
   ============

@ Summary of HF-SCF KT ionization potentials [eV]:

@ Symmetry 1 (A' ) :   305.224      25.620      14.756      14.756

@ Symmetry 2 (A" ) :    14.756

  === End of HF-SCF KT output ===
--------------------------------------------------------------------------------


 CPU and wall time for SCF :       0.058       0.057


                       .-----------------------------------.
                       | --- Final results from SIRIUS --- |
                       `-----------------------------------'


@    Spin multiplicity:           1
@    Spatial symmetry:            1 ( irrep  A'  in Cs  )
@    Total charge of molecule:    0

@    Final HF energy:             -40.198711526848                 
@    Nuclear repulsion:            13.420712547815
@    Electronic energy:           -53.619424074663

@    Final gradient norm:           0.000002631263

 
     Date and time (Linux)  : Mon May  4 21:03:21 2026
     Host name              : debian                                  

File label for MO orbitals:   4May26   FOCKDIIS

 (Only coefficients > 0.0100 are printed.)

 Molecular orbitals for symmetry species 1  (A' )
 ------------------------------------------------

    Orbital         1        2        3        4        5        6        7
   1 C   :1s     1.0017  -0.0293   0.0000  -0.0000   0.0973   0.0000  -0.0000
   2 C   :1s     0.0095   0.7352   0.0000  -0.0000  -0.1485   0.0000  -0.0000
   3 C   :1s    -0.0105  -0.1886  -0.0000   0.0000  -2.2647  -0.0000  -0.0000
   4 C   :2py   -0.0000   0.0000   0.6310   0.0454   0.0000   0.0356  -0.4445
   5 C   :2pz   -0.0000  -0.0000  -0.0454   0.6310   0.0000  -0.4445  -0.0356
   6 C   :2py   -0.0000  -0.0000  -0.0984  -0.0071   0.0000   0.0961  -1.2003
   7 C   :2pz   -0.0000  -0.0000   0.0071  -0.0984   0.0000  -1.2003  -0.0961
   8 C   :3d1-   0.0000  -0.0000  -0.0156  -0.0011   0.0000  -0.0011   0.0134
   9 C   :3d0   -0.0000   0.0000  -0.0019   0.0269   0.0000  -0.0232  -0.0019
  10 C   :3d2+   0.0000   0.0000  -0.0220  -0.0016  -0.0000  -0.0015   0.0189
  11 H2  :1s    -0.0000   0.3143  -0.2952  -0.2423   0.0184  -0.0253  -0.0427
  12 H2  :1s     0.0012  -0.1290   0.0754   0.0619   0.8385  -0.6542  -1.1024
  13 H2  :2px    0.0004  -0.0213   0.0130   0.0106  -0.0113   0.0075   0.0126
  14 H2  :2py   -0.0002   0.0123   0.0056  -0.0052   0.0065  -0.0043  -0.0072
  16 H3  :1s    -0.0000   0.3143   0.6380  -0.1752   0.0184  -0.0351   0.0786
  17 H3  :1s     0.0012  -0.1290  -0.1630   0.0447   0.8385  -0.9047   2.0276
  18 H3  :2py    0.0004  -0.0246  -0.0193   0.0098  -0.0130   0.0119  -0.0267
  19 H3  :2pz   -0.0001   0.0087   0.0105   0.0099   0.0046  -0.0041   0.0095
  20 H4  :1s    -0.0000   0.3143  -0.0475   0.6599   0.0184   0.0857   0.0069
  21 H4  :1s     0.0012  -0.1290   0.0121  -0.1686   0.8385   2.2132   0.1771
  22 H4  :2py    0.0000   0.0000   0.0130   0.0009  -0.0000  -0.0000   0.0001
  23 H4  :2pz    0.0004  -0.0261   0.0016  -0.0224  -0.0138  -0.0309  -0.0025

    Orbital         8        9       10       11       12       13       14
   1 C   :1s     0.0000   0.0000   0.0000   0.0000  -0.2685   0.0000   0.9016
   2 C   :1s     0.0000   0.0000   0.0000   0.0000  -1.6560   0.0000   3.6745
   3 C   :1s    -0.0000  -0.0000   0.0000   0.0000   2.2069  -0.0000  -7.0847
   4 C   :2py   -0.4130   0.1869   0.4440  -1.1732  -0.0000   0.0000   0.0000
   5 C   :2pz   -0.1869  -0.4130  -1.1732  -0.4440  -0.0000   0.0000  -0.0000
   6 C   :2py    1.2974  -0.5872  -0.8176   2.1605  -0.0000  -0.0000  -0.0000
   7 C   :2pz    0.5872   1.2974   2.1605   0.8176  -0.0000   0.0000   0.0000
   8 C   :3d1-   0.0660  -0.0299   0.0692  -0.1830   0.0000  -0.4338   0.0000
   9 C   :3d0   -0.0518  -0.1144   0.3169   0.1199  -0.0000   0.0000  -0.0000
  10 C   :3d2+   0.0934  -0.0423   0.0979  -0.2588   0.0000   0.3068   0.0000
  11 H2  :1s     0.8008   0.1544  -0.0864  -0.3334   0.9197  -0.0000   1.0189
  12 H2  :1s    -0.4407  -0.0850   0.3050   1.1762  -0.9561   0.0000   0.1994
  13 H2  :2px    0.0218   0.0042  -0.0448  -0.1729   0.1524   0.1545  -0.0470
  14 H2  :2py    0.0160  -0.0154   0.0533   0.0273  -0.0880   0.1784   0.0271
  15 H2  :2pz    0.0041   0.0269  -0.0542   0.0432  -0.0622   0.1261   0.0192
  16 H3  :1s    -1.0192   0.9781  -0.3850   0.4556   0.9197  -0.0000   1.0189
  17 H3  :1s     0.5608  -0.5382   1.3584  -1.6075  -0.9561   0.0000   0.1994
  18 H3  :2py   -0.0034   0.0178  -0.2032   0.2004   0.1759  -0.0892  -0.0543
  19 H3  :2pz    0.0243   0.0178   0.0090  -0.1239  -0.0622  -0.2523   0.0192
  20 H4  :1s    -0.5824  -1.2869   0.5579   0.2111   0.9197  -0.0000   1.0189
  21 H4  :1s     0.3205   0.7081  -1.9683  -0.7449  -0.9561   0.0000   0.1994
  22 H4  :2py    0.0286  -0.0130   0.0274  -0.0725   0.0000  -0.2676  -0.0000
  23 H4  :2pz   -0.0065  -0.0143   0.2819   0.1067   0.1866   0.0000  -0.0575

 Molecular orbitals for symmetry species 2  (A" )
 ------------------------------------------------

    Orbital         1        2        3        4        5        6        7
   1 C   :2px    0.6327  -0.4459   0.4533  -1.2544  -0.0000  -0.0000  -0.0000
   2 C   :2px   -0.0987  -1.2042  -1.4241   2.3100   0.0000   0.0000   0.0000
   3 C   :3d2-  -0.0221   0.0190  -0.1025  -0.2767  -0.3068  -0.0000  -0.0000
   4 C   :3d1+  -0.0156   0.0134  -0.0725  -0.1956   0.4338  -0.0000  -0.0000
   5 H2  :1s     0.5402   0.0702   1.1534   0.4871   0.0000   0.0000  -0.0000
   6 H2  :1s    -0.1380   1.8129  -0.6347  -1.7184  -0.0000  -0.0000   0.0000
   7 H2  :2px   -0.0106  -0.0206  -0.0000   0.1751  -0.0000  -0.3692   0.0000
   8 H2  :2py    0.0137   0.0119  -0.0181  -0.1459  -0.1545  -0.4263   0.3015
   9 H2  :2pz    0.0097   0.0084  -0.0128  -0.1031   0.2185  -0.3015  -0.4263
  10 H3  :2px    0.0131   0.0001  -0.0314  -0.0775  -0.2676   0.3692  -0.5222
  11 H4  :2px    0.0131   0.0001  -0.0314  -0.0775   0.2676   0.3692   0.5222

    Orbital         8        9       10       11
   1 C   :2px   -0.0811   0.3942   0.0000   2.0860
   2 C   :2px    1.0387   0.4977  -0.0000  -0.0383
   3 C   :3d2-  -0.5406   0.6755  -0.7669  -1.1466
   4 C   :3d1+  -0.3823   0.4776   1.0845  -0.8108
   5 H2  :1s    -1.1068   0.2733   0.0000  -2.1826
   6 H2  :1s     0.4475  -0.5970   0.0000   0.5102
   7 H2  :2px   -0.3823  -0.1219   0.0000   0.9716
   8 H2  :2py    0.0151  -0.3434   0.3721  -0.5396
   9 H2  :2pz    0.0107  -0.2428  -0.5262  -0.3815
  10 H3  :2px   -0.3561  -0.7167   0.6445   0.0370
  11 H4  :2px   -0.3561  -0.7167  -0.6445   0.0370

  Total CPU  time used in SIRIUS :   0.06 seconds
  Total wall time used in SIRIUS :   0.06 seconds

 
     Date and time (Linux)  : Mon May  4 21:03:21 2026
     Host name              : debian                                  


                     .---------------------------------------.
                     | End of Wave Function Section (SIRIUS) |
                     `---------------------------------------'

  Total CPU  time used in DALTON:   0.10 seconds
  Total wall time used in DALTON:   0.10 seconds

 
     Date and time (Linux)  : Mon May  4 21:03:21 2026
     Host name              : debian                                  
