
    -----------------------------------------------------------------------
          Psi4: An Open-Source Ab Initio Electronic Structure Package
                               Psi4 1.10 release

                         Git: Rev {} zzzzzzz 


    D. G. A. Smith, L. A. Burns, A. C. Simmonett, R. M. Parrish,
    M. C. Schieber, R. Galvelis, P. Kraus, H. Kruse, R. Di Remigio,
    A. Alenaizan, A. M. James, S. Lehtola, J. P. Misiewicz, M. Scheurer,
    R. A. Shaw, J. B. Schriber, Y. Xie, Z. L. Glick, D. A. Sirianni,
    J. S. O'Brien, J. M. Waldrop, A. Kumar, E. G. Hohenstein,
    B. P. Pritchard, B. R. Brooks, H. F. Schaefer III, A. Yu. Sokolov,
    K. Patkowski, A. E. DePrince III, U. Bozkaya, R. A. King,
    F. A. Evangelista, J. M. Turney, T. D. Crawford, C. D. Sherrill,
    J. Chem. Phys. 152(18) 184108 (2020). https://doi.org/10.1063/5.0006002

                            Additional Code Authors
    E. T. Seidl, C. L. Janssen, E. F. Valeev, M. L. Leininger,
    J. F. Gonthier, R. M. Richard, H. R. McAlexander, M. Saitow, X. Wang,
    P. Verma, M. H. Lechner, A. Jiang, S. Behnle, A. G. Heide,
    M. F. Herbst, D. L. Poole, T. Győri, E. C. Mitchell, J. P. Pederson,
    and A. M. Wallace

             Previous Authors, Complete List of Code Contributors,
                       and Citations for Specific Modules
    https://github.com/psi4/psi4/blob/master/codemeta.json
    https://github.com/psi4/psi4/graphs/contributors
    https://psicode.org/psi4manual/master/introduction.html#citing-psifour

    -----------------------------------------------------------------------


    Psi4 started on: Tuesday, 05 May 2026 09:18AM

    Process ID: 8521
    Host:       debian
    PSIDATADIR: /home/vdwv/DIPLOM_ITMO/CALCULATIONS_AND_SOFTS/softwares/Psi4_Shenanigans/psi4conda/share/psi4
    Memory:     500.0 MiB
    Threads:    1
    Addons:     adcc, a̶m̶b̶i̶t̶, b̶s̶e̶, c̶c̶t̶3̶, c̶f̶o̶u̶r̶, c̶h̶e̶m̶p̶s̶2̶, c̶p̶p̶e̶, ddx, dftd3, dftd4,
                dkh, ecpint, einsums, f̶o̶r̶t̶e̶, g̶a̶u̶x̶c̶, gcp, g̶d̶m̶a̶, geometric,
                g̶p̶u̶_̶d̶f̶c̶c̶, i̶n̶t̶e̶g̶r̶a̶t̶o̶r̶x̶x̶, i̶p̶i̶, libefp, m̶d̶i̶, m̶p̶2̶d̶,
                m̶r̶c̶c̶, ooo, o̶p̶e̶n̶f̶e̶r̶m̶i̶o̶n̶p̶s̶i̶4̶, pcmsolver, p̶s̶i̶4̶f̶o̶c̶k̶c̶i̶,
                p̶s̶i̶x̶a̶s̶, r̶e̶s̶p̶, s̶i̶m̶i̶n̶t̶, s̶n̶s̶m̶p̶2̶, v̶2̶r̶d̶m̶_̶c̶a̶s̶s̶c̶f̶

  ==> Input File <==

--------------------------------------------------------------------------
#! Sample HF/3-21G CH3COOH computation

memory 600 mb

molecule ch3cooh {
  C1   1.120 -0.832  0.000
  C2   0.000  0.163  0.000
  O3   0.087  1.362  0.000
  H4   2.066 -0.315  0.000
  H5   1.037 -1.465  0.874
  H6   1.037 -1.465 -0.874
  O7  -1.201 -0.474  0.000
  H8  -1.941  0.152  0.000
  units angstrom
}


set basis 3-21G
energy('scf')

--------------------------------------------------------------------------

  Memory set to 572.205 MiB by Python driver.

Scratch directory: /tmp/
   => Libint2 <=

    Primary   basis highest AM E, G, H:  6, 6, 3
    Auxiliary basis highest AM E, G, H:  7, 7, 4
    Onebody   basis highest AM E, G, H:  -, -, -
    Solid Harmonics ordering:            Gaussian

*** tstart() called on debian
*** at Tue May  5 09:18:42 2026

   => Loading Basis Set <=

    Name: 3-21G
    Role: ORBITAL
    Keyword: BASIS
    atoms 1-2    entry C          line    68 file /home/vdwv/DIPLOM_ITMO/CALCULATIONS_AND_SOFTS/softwares/Psi4_Shenanigans/psi4conda/share/psi4/basis/3-21g.gbs 
    atoms 3, 7   entry O          line    90 file /home/vdwv/DIPLOM_ITMO/CALCULATIONS_AND_SOFTS/softwares/Psi4_Shenanigans/psi4conda/share/psi4/basis/3-21g.gbs 
    atoms 4-6, 8 entry H          line    21 file /home/vdwv/DIPLOM_ITMO/CALCULATIONS_AND_SOFTS/softwares/Psi4_Shenanigans/psi4conda/share/psi4/basis/3-21g.gbs 


         ---------------------------------------------------------
                                   SCF
               by Justin Turney, Rob Parrish, Andy Simmonett
                          and Daniel G. A. Smith
                              RHF Reference
                        1 Threads,    572 MiB Core
         ---------------------------------------------------------

  ==> Geometry <==

    Molecular point group: cs
    Full point group: Cs

    Geometry (in Angstrom), charge = 0, multiplicity = 1:

       Center              X                  Y                   Z               Mass       
    ------------   -----------------  -----------------  -----------------  -----------------
         C            1.156022775031    -0.882953412401     0.000000000000    12.000000000000
         C            0.036022775031     0.112046587599     0.000000000000    12.000000000000
         O            0.123022775031     1.311046587599     0.000000000000    15.994914619570
         H            2.102022775031    -0.365953412401     0.000000000000     1.007825032230
         H            1.073022775031    -1.515953412401     0.874000000000     1.007825032230
         H            1.073022775031    -1.515953412401    -0.874000000000     1.007825032230
         O           -1.164977224969    -0.524953412401     0.000000000000    15.994914619570
         H           -1.904977224969     0.101046587599     0.000000000000     1.007825032230

  Running in cs symmetry.

  Rotational constants: A =      0.37789  B =      0.31755  C =      0.17817 [cm^-1]
  Rotational constants: A =  11328.85783  B =   9519.85621  C =   5341.29600 [MHz]
  Nuclear repulsion =  121.251984537304338

  Charge       = 0
  Multiplicity = 1
  Electrons    = 32
  Nalpha       = 16
  Nbeta        = 16

  ==> Algorithm <==

  SCF Algorithm Type is DF.
  DIIS enabled.
  MOM disabled.
  Fractional occupation disabled.
  Guess Type is SAD.
  Energy threshold   = 1.00e-06
  Density threshold  = 1.00e-06
  Integral threshold = 1.00e-12

  ==> Primary Basis <==

  Basis Set: 3-21G
    Blend: 3-21G
    Number of shells: 28
    Number of basis functions: 44
    Number of Cartesian functions: 44
    Spherical Harmonics?: false
    Max angular momentum: 1

   => Loading Basis Set <=

    Name: (3-21G AUX)
    Role: JKFIT
    Keyword: DF_BASIS_SCF
    atoms 1-2    entry C          line   198 file /home/vdwv/DIPLOM_ITMO/CALCULATIONS_AND_SOFTS/softwares/Psi4_Shenanigans/psi4conda/share/psi4/basis/def2-universal-jkfit.gbs 
    atoms 3, 7   entry O          line   318 file /home/vdwv/DIPLOM_ITMO/CALCULATIONS_AND_SOFTS/softwares/Psi4_Shenanigans/psi4conda/share/psi4/basis/def2-universal-jkfit.gbs 
    atoms 4-6, 8 entry H          line    18 file /home/vdwv/DIPLOM_ITMO/CALCULATIONS_AND_SOFTS/softwares/Psi4_Shenanigans/psi4conda/share/psi4/basis/def2-universal-jkfit.gbs 

  ==> Integral Setup <==

  DFHelper Memory: AOs need 0.009 GiB; user supplied 0.419 GiB. 
  SCF_SUBTYPE=INCORE selected. In-core MEM_DF algorithm will be used.
  Using in-core AOs.

  ==> MemDFJK: Density-Fitted J/K Matrices <==

    J tasked:                   Yes
    K tasked:                   Yes
    wK tasked:                   No
    OpenMP threads:               1
    Memory [MiB]:               429
    Algorithm:                 Core
    Schwarz Cutoff:           1E-12
    Mask sparsity (%):       0.4132
    Fitting Condition:        1E-10

   => Auxiliary Basis Set <=

  Basis Set: (3-21G AUX)
    Blend: DEF2-UNIVERSAL-JKFIT
    Number of shells: 124
    Number of basis functions: 444
    Number of Cartesian functions: 444
    Spherical Harmonics?: false
    Max angular momentum: 4

  Minimum eigenvalue in the overlap matrix is 1.4307607090E-02.
  Reciprocal condition number of the overlap matrix is 3.6273571992E-03.
    Using symmetric orthogonalization.

  ==> Pre-Iterations <==

  SCF Guess: Superposition of Atomic Densities via on-the-fly atomic UHF (no occupation information).

   -------------------------
    Irrep   Nso     Nmo    
   -------------------------
     A'        34      34 
     A"        10      10 
   -------------------------
    Total      44      44
   -------------------------

  ==> Iterations <==

                           Total Energy        Delta E     RMS |[F,P]|

   @DF-RHF iter SAD:  -225.59571056326115   -2.25596e+02   0.00000e+00 
   @DF-RHF iter   1:  -225.01937851533773    5.76332e-01   4.55347e-02 DIIS/ADIIS
   @DF-RHF iter   2:  -226.15253877708045   -1.13316e+00   2.76670e-02 DIIS/ADIIS
   @DF-RHF iter   3:  -226.49357447707462   -3.41036e-01   9.45103e-03 DIIS/ADIIS
   @DF-RHF iter   4:  -226.53126496486991   -3.76905e-02   2.19424e-03 DIIS/ADIIS
   @DF-RHF iter   5:  -226.53393583665408   -2.67087e-03   2.88706e-04 DIIS/ADIIS
   @DF-RHF iter   6:  -226.53404040387520   -1.04567e-04   1.17453e-04 DIIS/ADIIS
   @DF-RHF iter   7:  -226.53405564941994   -1.52455e-05   3.32092e-05 DIIS
   @DF-RHF iter   8:  -226.53405702332944   -1.37391e-06   1.37016e-05 DIIS
   @DF-RHF iter   9:  -226.53405732787124   -3.04542e-07   5.87000e-06 DIIS
   @DF-RHF iter  10:  -226.53405738650389   -5.86327e-08   9.07701e-07 DIIS
  Energy and wave function converged.


  ==> Post-Iterations <==

    Orbital Energies [Eh]
    ---------------------

    Doubly Occupied:                                                      

       1Ap   -20.498327     2Ap   -20.453579     3Ap   -11.339343  
       4Ap   -11.184671     5Ap    -1.467928     6Ap    -1.364923  
       7Ap    -1.032405     8Ap    -0.816183     9Ap    -0.687745  
      10Ap    -0.672948     1App   -0.650098    11Ap    -0.575180  
      12Ap    -0.556884     2App   -0.556428     3App   -0.465121  
      13Ap    -0.441799  

    Virtual:                                                              

       4App    0.186915    14Ap     0.260978    15Ap     0.292489  
      16Ap     0.335020     5App    0.351854    17Ap     0.425616  
      18Ap     0.539855    19Ap     0.585009     6App    0.915664  
      20Ap     0.966615    21Ap     0.991849     7App    1.034181  
      22Ap     1.068700    23Ap     1.103414    24Ap     1.274606  
      25Ap     1.285035     8App    1.319058    26Ap     1.352634  
      27Ap     1.596797     9App    1.793366    28Ap     1.886092  
      29Ap     1.954128    10App    1.956476    30Ap     2.010354  
      31Ap     2.130027    32Ap     2.271808    33Ap     3.422734  
      34Ap     3.623221  

    Final Occupation by Irrep:
             Ap   App 
    DOCC [    13,    3 ]
    NA   [    13,    3 ]
    NB   [    13,    3 ]

  @DF-RHF Final Energy:  -226.53405738650389

   => Energetics <=

    Nuclear Repulsion Energy =            121.2519845373043381
    One-Electron Energy =                -550.0450006425701304
    Two-Electron Energy =                 202.2589587187619031
    Total Energy =                       -226.5340573865038891

Computation Completed


Properties will be evaluated at   0.000000,   0.000000,   0.000000 [a0]

Properties computed using the SCF density matrix


 Multipole Moments:

 ------------------------------------------------------------------------------------
     Multipole            Electronic (a.u.)      Nuclear  (a.u.)        Total (a.u.)
 ------------------------------------------------------------------------------------

 L = 1.  Multiply by 2.5417464519 to convert [e a0] to [Debye]
 Dipole X            :         -2.2731377            2.1915698           -0.0815679
 Dipole Y            :          2.4399300           -3.0868850           -0.6469550
 Dipole Z            :          0.0000000            0.0000000            0.0000000
 Magnitude           :                                                    0.6520768

 ------------------------------------------------------------------------------------

*** tstop() called on debian at Tue May  5 09:18:43 2026
Module time:
	user time   =       1.12 seconds =       0.02 minutes
	system time =       0.03 seconds =       0.00 minutes
	total time  =          1 seconds =       0.02 minutes
Total time:
	user time   =       1.12 seconds =       0.02 minutes
	system time =       0.03 seconds =       0.00 minutes
	total time  =          1 seconds =       0.02 minutes

    Psi4 stopped on: Tuesday, 05 May 2026 09:18AM
    Psi4 wall time for execution: 0:00:01.22

*** Psi4 exiting successfully. Buy a developer a beer!
