
    -----------------------------------------------------------------------
          Psi4: An Open-Source Ab Initio Electronic Structure Package
                               Psi4 1.10 release

                         Git: Rev {} zzzzzzz 


    D. G. A. Smith, L. A. Burns, A. C. Simmonett, R. M. Parrish,
    M. C. Schieber, R. Galvelis, P. Kraus, H. Kruse, R. Di Remigio,
    A. Alenaizan, A. M. James, S. Lehtola, J. P. Misiewicz, M. Scheurer,
    R. A. Shaw, J. B. Schriber, Y. Xie, Z. L. Glick, D. A. Sirianni,
    J. S. O'Brien, J. M. Waldrop, A. Kumar, E. G. Hohenstein,
    B. P. Pritchard, B. R. Brooks, H. F. Schaefer III, A. Yu. Sokolov,
    K. Patkowski, A. E. DePrince III, U. Bozkaya, R. A. King,
    F. A. Evangelista, J. M. Turney, T. D. Crawford, C. D. Sherrill,
    J. Chem. Phys. 152(18) 184108 (2020). https://doi.org/10.1063/5.0006002

                            Additional Code Authors
    E. T. Seidl, C. L. Janssen, E. F. Valeev, M. L. Leininger,
    J. F. Gonthier, R. M. Richard, H. R. McAlexander, M. Saitow, X. Wang,
    P. Verma, M. H. Lechner, A. Jiang, S. Behnle, A. G. Heide,
    M. F. Herbst, D. L. Poole, T. Győri, E. C. Mitchell, J. P. Pederson,
    and A. M. Wallace

             Previous Authors, Complete List of Code Contributors,
                       and Citations for Specific Modules
    https://github.com/psi4/psi4/blob/master/codemeta.json
    https://github.com/psi4/psi4/graphs/contributors
    https://psicode.org/psi4manual/master/introduction.html#citing-psifour

    -----------------------------------------------------------------------


    Psi4 started on: Tuesday, 05 May 2026 09:23AM

    Process ID: 8639
    Host:       debian
    PSIDATADIR: /home/vdwv/DIPLOM_ITMO/CALCULATIONS_AND_SOFTS/softwares/Psi4_Shenanigans/psi4conda/share/psi4
    Memory:     500.0 MiB
    Threads:    1
    Addons:     adcc, a̶m̶b̶i̶t̶, b̶s̶e̶, c̶c̶t̶3̶, c̶f̶o̶u̶r̶, c̶h̶e̶m̶p̶s̶2̶, c̶p̶p̶e̶, ddx, dftd3, dftd4,
                dkh, ecpint, einsums, f̶o̶r̶t̶e̶, g̶a̶u̶x̶c̶, gcp, g̶d̶m̶a̶, geometric,
                g̶p̶u̶_̶d̶f̶c̶c̶, i̶n̶t̶e̶g̶r̶a̶t̶o̶r̶x̶x̶, i̶p̶i̶, libefp, m̶d̶i̶, m̶p̶2̶d̶,
                m̶r̶c̶c̶, ooo, o̶p̶e̶n̶f̶e̶r̶m̶i̶o̶n̶p̶s̶i̶4̶, pcmsolver, p̶s̶i̶4̶f̶o̶c̶k̶c̶i̶,
                p̶s̶i̶x̶a̶s̶, r̶e̶s̶p̶, s̶i̶m̶i̶n̶t̶, s̶n̶s̶m̶p̶2̶, v̶2̶r̶d̶m̶_̶c̶a̶s̶s̶c̶f̶

  ==> Input File <==

--------------------------------------------------------------------------
#! Sample HF/6-31G CH3COOH computation

memory 600 mb

molecule ch3cooh {
  C1   1.101 -0.852  0.000
  C2   0.000  0.150  0.000
  O3   0.127  1.354  0.000
  H4   2.053 -0.347  0.000
  H5   1.020 -1.487  0.873
  H6   1.020 -1.487 -0.873
  O7  -1.222 -0.436  0.000
  H8  -1.947  0.185  0.000
  units angstrom
}


set basis 6-31G
energy('scf')

--------------------------------------------------------------------------

  Memory set to 572.205 MiB by Python driver.

Scratch directory: /tmp/
   => Libint2 <=

    Primary   basis highest AM E, G, H:  6, 6, 3
    Auxiliary basis highest AM E, G, H:  7, 7, 4
    Onebody   basis highest AM E, G, H:  -, -, -
    Solid Harmonics ordering:            Gaussian

*** tstart() called on debian
*** at Tue May  5 09:23:04 2026

   => Loading Basis Set <=

    Name: 6-31G
    Role: ORBITAL
    Keyword: BASIS
    atoms 1-2    entry C          line    87 file /home/vdwv/DIPLOM_ITMO/CALCULATIONS_AND_SOFTS/softwares/Psi4_Shenanigans/psi4conda/share/psi4/basis/6-31g.gbs 
    atoms 3, 7   entry O          line   117 file /home/vdwv/DIPLOM_ITMO/CALCULATIONS_AND_SOFTS/softwares/Psi4_Shenanigans/psi4conda/share/psi4/basis/6-31g.gbs 
    atoms 4-6, 8 entry H          line    26 file /home/vdwv/DIPLOM_ITMO/CALCULATIONS_AND_SOFTS/softwares/Psi4_Shenanigans/psi4conda/share/psi4/basis/6-31g.gbs 


         ---------------------------------------------------------
                                   SCF
               by Justin Turney, Rob Parrish, Andy Simmonett
                          and Daniel G. A. Smith
                              RHF Reference
                        1 Threads,    572 MiB Core
         ---------------------------------------------------------

  ==> Geometry <==

    Molecular point group: cs
    Full point group: Cs

    Geometry (in Angstrom), charge = 0, multiplicity = 1:

       Center              X                  Y                   Z               Mass       
    ------------   -----------------  -----------------  -----------------  -----------------
         C            1.136648096125    -0.903628357419     0.000000000000    12.000000000000
         C            0.035648096125     0.098371642581     0.000000000000    12.000000000000
         O            0.162648096125     1.302371642581     0.000000000000    15.994914619570
         H            2.088648096125    -0.398628357419     0.000000000000     1.007825032230
         H            1.055648096125    -1.538628357419     0.873000000000     1.007825032230
         H            1.055648096125    -1.538628357419    -0.873000000000     1.007825032230
         O           -1.186351903875    -0.487628357419     0.000000000000    15.994914619570
         H           -1.911351903875     0.133371642581     0.000000000000     1.007825032230

  Running in cs symmetry.

  Rotational constants: A =      0.37844  B =      0.31744  C =      0.17824 [cm^-1]
  Rotational constants: A =  11345.46125  B =   9516.75365  C =   5343.60781 [MHz]
  Nuclear repulsion =  121.296409917069582

  Charge       = 0
  Multiplicity = 1
  Electrons    = 32
  Nalpha       = 16
  Nbeta        = 16

  ==> Algorithm <==

  SCF Algorithm Type is DF.
  DIIS enabled.
  MOM disabled.
  Fractional occupation disabled.
  Guess Type is SAD.
  Energy threshold   = 1.00e-06
  Density threshold  = 1.00e-06
  Integral threshold = 1.00e-12

  ==> Primary Basis <==

  Basis Set: 6-31G
    Blend: 6-31G
    Number of shells: 28
    Number of basis functions: 44
    Number of Cartesian functions: 44
    Spherical Harmonics?: false
    Max angular momentum: 1

   => Loading Basis Set <=

    Name: (6-31G AUX)
    Role: JKFIT
    Keyword: DF_BASIS_SCF
    atoms 1-2    entry C          line   121 file /home/vdwv/DIPLOM_ITMO/CALCULATIONS_AND_SOFTS/softwares/Psi4_Shenanigans/psi4conda/share/psi4/basis/cc-pvdz-jkfit.gbs 
    atoms 3, 7   entry O          line   221 file /home/vdwv/DIPLOM_ITMO/CALCULATIONS_AND_SOFTS/softwares/Psi4_Shenanigans/psi4conda/share/psi4/basis/cc-pvdz-jkfit.gbs 
    atoms 4-6, 8 entry H          line    51 file /home/vdwv/DIPLOM_ITMO/CALCULATIONS_AND_SOFTS/softwares/Psi4_Shenanigans/psi4conda/share/psi4/basis/cc-pvdz-jkfit.gbs 

  ==> Integral Setup <==

  DFHelper Memory: AOs need 0.008 GiB; user supplied 0.419 GiB. 
  SCF_SUBTYPE=INCORE selected. In-core MEM_DF algorithm will be used.
  Using in-core AOs.

  ==> MemDFJK: Density-Fitted J/K Matrices <==

    J tasked:                   Yes
    K tasked:                   Yes
    wK tasked:                   No
    OpenMP threads:               1
    Memory [MiB]:               429
    Algorithm:                 Core
    Schwarz Cutoff:           1E-12
    Mask sparsity (%):       0.3099
    Fitting Condition:        1E-10

   => Auxiliary Basis Set <=

  Basis Set: (6-31G AUX)
    Blend: CC-PVDZ-JKFIT
    Number of shells: 132
    Number of basis functions: 424
    Number of Cartesian functions: 424
    Spherical Harmonics?: false
    Max angular momentum: 3

  Minimum eigenvalue in the overlap matrix is 7.2489842622E-03.
  Reciprocal condition number of the overlap matrix is 1.6173272294E-03.
    Using symmetric orthogonalization.

  ==> Pre-Iterations <==

  SCF Guess: Superposition of Atomic Densities via on-the-fly atomic UHF (no occupation information).

   -------------------------
    Irrep   Nso     Nmo    
   -------------------------
     A'        34      34 
     A"        10      10 
   -------------------------
    Total      44      44
   -------------------------

  ==> Iterations <==

                           Total Energy        Delta E     RMS |[F,P]|

   @DF-RHF iter SAD:  -227.45737926673061   -2.27457e+02   0.00000e+00 
   @DF-RHF iter   1:  -225.87139055367930    1.58599e+00   4.89498e-02 DIIS/ADIIS
   @DF-RHF iter   2:  -227.23602205895369   -1.36463e+00   2.88982e-02 DIIS/ADIIS
   @DF-RHF iter   3:  -227.65242651024505   -4.16404e-01   9.77365e-03 DIIS/ADIIS
   @DF-RHF iter   4:  -227.69638099264444   -4.39545e-02   2.78632e-03 DIIS/ADIIS
   @DF-RHF iter   5:  -227.70072526063385   -4.34427e-03   3.34718e-04 DIIS/ADIIS
   @DF-RHF iter   6:  -227.70086034511672   -1.35084e-04   1.24385e-04 DIIS/ADIIS
   @DF-RHF iter   7:  -227.70087704032071   -1.66952e-05   3.55671e-05 DIIS
   @DF-RHF iter   8:  -227.70087853028949   -1.48997e-06   1.33818e-05 DIIS
   @DF-RHF iter   9:  -227.70087879433515   -2.64046e-07   5.66512e-06 DIIS
   @DF-RHF iter  10:  -227.70087885214900   -5.78138e-08   1.39906e-06 DIIS
   @DF-RHF iter  11:  -227.70087885640231   -4.25331e-09   2.32564e-07 DIIS
  Energy and wave function converged.


  ==> Post-Iterations <==

    Orbital Energies [Eh]
    ---------------------

    Doubly Occupied:                                                      

       1Ap   -20.616561     2Ap   -20.570372     3Ap   -11.414820  
       4Ap   -11.248938     5Ap    -1.487126     6Ap    -1.379544  
       7Ap    -1.043957     8Ap    -0.842131     9Ap    -0.701452  
      10Ap    -0.685136     1App   -0.658805    11Ap    -0.580479  
      12Ap    -0.571400     2App   -0.564688     3App   -0.478264  
      13Ap    -0.456103  

    Virtual:                                                              

       4App    0.164764    14Ap     0.216975    15Ap     0.253327  
      16Ap     0.302761     5App    0.319256    17Ap     0.385764  
      18Ap     0.464388    19Ap     0.504500     6App    0.733828  
      20Ap     0.786194    21Ap     0.824162     7App    0.831183  
      22Ap     0.836954    23Ap     0.953821    24Ap     1.013458  
      25Ap     1.119670     8App    1.169006    26Ap     1.206500  
       9App    1.222707    27Ap     1.226520    28Ap     1.246118  
      29Ap     1.320303    10App    1.336148    30Ap     1.393705  
      31Ap     1.447157    32Ap     1.670521    33Ap     2.017264  
      34Ap     2.140565  

    Final Occupation by Irrep:
             Ap   App 
    DOCC [    13,    3 ]
    NA   [    13,    3 ]
    NB   [    13,    3 ]

  @DF-RHF Final Energy:  -227.70087885640231

   => Energetics <=

    Nuclear Repulsion Energy =            121.2964099170695818
    One-Electron Energy =                -551.3950466958484640
    Two-Electron Energy =                 202.3977579223765701
    Total Energy =                       -227.7008788564023121

Computation Completed


Properties will be evaluated at   0.000000,   0.000000,   0.000000 [a0]

Properties computed using the SCF density matrix


 Multipole Moments:

 ------------------------------------------------------------------------------------
     Multipole            Electronic (a.u.)      Nuclear  (a.u.)        Total (a.u.)
 ------------------------------------------------------------------------------------

 L = 1.  Multiply by 2.5417464519 to convert [e a0] to [Debye]
 Dipole X            :         -2.2197721            2.1405666           -0.0792054
 Dipole Y            :          2.3724035           -3.1295895           -0.7571860
 Dipole Z            :          0.0000000            0.0000000            0.0000000
 Magnitude           :                                                    0.7613174

 ------------------------------------------------------------------------------------

*** tstop() called on debian at Tue May  5 09:23:05 2026
Module time:
	user time   =       0.97 seconds =       0.02 minutes
	system time =       0.06 seconds =       0.00 minutes
	total time  =          1 seconds =       0.02 minutes
Total time:
	user time   =       0.97 seconds =       0.02 minutes
	system time =       0.06 seconds =       0.00 minutes
	total time  =          1 seconds =       0.02 minutes

    Psi4 stopped on: Tuesday, 05 May 2026 09:23AM
    Psi4 wall time for execution: 0:00:01.10

*** Psi4 exiting successfully. Buy a developer a beer!
