
    -----------------------------------------------------------------------
          Psi4: An Open-Source Ab Initio Electronic Structure Package
                               Psi4 1.10 release

                         Git: Rev {} zzzzzzz 


    D. G. A. Smith, L. A. Burns, A. C. Simmonett, R. M. Parrish,
    M. C. Schieber, R. Galvelis, P. Kraus, H. Kruse, R. Di Remigio,
    A. Alenaizan, A. M. James, S. Lehtola, J. P. Misiewicz, M. Scheurer,
    R. A. Shaw, J. B. Schriber, Y. Xie, Z. L. Glick, D. A. Sirianni,
    J. S. O'Brien, J. M. Waldrop, A. Kumar, E. G. Hohenstein,
    B. P. Pritchard, B. R. Brooks, H. F. Schaefer III, A. Yu. Sokolov,
    K. Patkowski, A. E. DePrince III, U. Bozkaya, R. A. King,
    F. A. Evangelista, J. M. Turney, T. D. Crawford, C. D. Sherrill,
    J. Chem. Phys. 152(18) 184108 (2020). https://doi.org/10.1063/5.0006002

                            Additional Code Authors
    E. T. Seidl, C. L. Janssen, E. F. Valeev, M. L. Leininger,
    J. F. Gonthier, R. M. Richard, H. R. McAlexander, M. Saitow, X. Wang,
    P. Verma, M. H. Lechner, A. Jiang, S. Behnle, A. G. Heide,
    M. F. Herbst, D. L. Poole, T. Győri, E. C. Mitchell, J. P. Pederson,
    and A. M. Wallace

             Previous Authors, Complete List of Code Contributors,
                       and Citations for Specific Modules
    https://github.com/psi4/psi4/blob/master/codemeta.json
    https://github.com/psi4/psi4/graphs/contributors
    https://psicode.org/psi4manual/master/introduction.html#citing-psifour

    -----------------------------------------------------------------------


    Psi4 started on: Thursday, 07 May 2026 05:29PM

    Process ID: 8048
    Host:       debian
    PSIDATADIR: /home/vdwv/DIPLOM_ITMO/CALCULATIONS_AND_SOFTS/softwares/Psi4_Shenanigans/psi4conda/share/psi4
    Memory:     500.0 MiB
    Threads:    1
    Addons:     adcc, a̶m̶b̶i̶t̶, b̶s̶e̶, c̶c̶t̶3̶, c̶f̶o̶u̶r̶, c̶h̶e̶m̶p̶s̶2̶, c̶p̶p̶e̶, ddx, dftd3, dftd4,
                dkh, ecpint, einsums, f̶o̶r̶t̶e̶, g̶a̶u̶x̶c̶, gcp, g̶d̶m̶a̶, geometric,
                g̶p̶u̶_̶d̶f̶c̶c̶, i̶n̶t̶e̶g̶r̶a̶t̶o̶r̶x̶x̶, i̶p̶i̶, libefp, m̶d̶i̶, m̶p̶2̶d̶,
                m̶r̶c̶c̶, ooo, o̶p̶e̶n̶f̶e̶r̶m̶i̶o̶n̶p̶s̶i̶4̶, pcmsolver, p̶s̶i̶4̶f̶o̶c̶k̶c̶i̶,
                p̶s̶i̶x̶a̶s̶, r̶e̶s̶p̶, s̶i̶m̶i̶n̶t̶, s̶n̶s̶m̶p̶2̶, v̶2̶r̶d̶m̶_̶c̶a̶s̶s̶c̶f̶

  ==> Input File <==

--------------------------------------------------------------------------
#! Sample DFT/cc-pVTZ CH3COOH computation

memory 600 mb

molecule ch3cooh {
  C1   1.064 -0.905  0.000
  C2   0.000  0.156  0.000
  O3   0.185  1.345  0.000
  H4   2.044 -0.438  0.000
  H5   0.953 -1.542  0.878
  H6   0.953 -1.542 -0.878
  O7  -1.243 -0.386  0.000
  H8  -1.869  0.352  0.000
  units angstrom
}


set basis cc-pVTZ
energy('scf', dft_functional = 'b3lyp')

--------------------------------------------------------------------------

  Memory set to 572.205 MiB by Python driver.

Scratch directory: /tmp/
   => Libint2 <=

    Primary   basis highest AM E, G, H:  6, 6, 3
    Auxiliary basis highest AM E, G, H:  7, 7, 4
    Onebody   basis highest AM E, G, H:  -, -, -
    Solid Harmonics ordering:            Gaussian

*** tstart() called on debian
*** at Thu May  7 17:29:12 2026

   => Loading Basis Set <=

    Name: CC-PVTZ
    Role: ORBITAL
    Keyword: BASIS
    atoms 1-2    entry C          line   186 file /home/vdwv/DIPLOM_ITMO/CALCULATIONS_AND_SOFTS/softwares/Psi4_Shenanigans/psi4conda/share/psi4/basis/cc-pvtz.gbs 
    atoms 3, 7   entry O          line   262 file /home/vdwv/DIPLOM_ITMO/CALCULATIONS_AND_SOFTS/softwares/Psi4_Shenanigans/psi4conda/share/psi4/basis/cc-pvtz.gbs 
    atoms 4-6, 8 entry H          line    23 file /home/vdwv/DIPLOM_ITMO/CALCULATIONS_AND_SOFTS/softwares/Psi4_Shenanigans/psi4conda/share/psi4/basis/cc-pvtz.gbs 


         ---------------------------------------------------------
                                   SCF
               by Justin Turney, Rob Parrish, Andy Simmonett
                          and Daniel G. A. Smith
                              RKS Reference
                        1 Threads,    572 MiB Core
         ---------------------------------------------------------

  ==> Geometry <==

    Molecular point group: cs
    Full point group: Cs

    Geometry (in Angstrom), charge = 0, multiplicity = 1:

       Center              X                  Y                   Z               Mass       
    ------------   -----------------  -----------------  -----------------  -----------------
         C            1.098276858784    -0.957586777377     0.000000000000    12.000000000000
         C            0.034276858784     0.103413222623     0.000000000000    12.000000000000
         O            0.219276858784     1.292413222623     0.000000000000    15.994914619570
         H            2.078276858784    -0.490586777377     0.000000000000     1.007825032230
         H            0.987276858784    -1.594586777377     0.878000000000     1.007825032230
         H            0.987276858784    -1.594586777377    -0.878000000000     1.007825032230
         O           -1.208723141216    -0.438586777377     0.000000000000    15.994914619570
         H           -1.834723141216     0.299413222623     0.000000000000     1.007825032230

  Running in cs symmetry.

  Rotational constants: A =      0.37895  B =      0.31602  C =      0.17797 [cm^-1]
  Rotational constants: A =  11360.63604  B =   9474.13983  C =   5335.48052 [MHz]
  Nuclear repulsion =  121.191449947448135

  Charge       = 0
  Multiplicity = 1
  Electrons    = 32
  Nalpha       = 16
  Nbeta        = 16

  ==> Algorithm <==

  SCF Algorithm Type is DF.
  DIIS enabled.
  MOM disabled.
  Fractional occupation disabled.
  Guess Type is SAD.
  Energy threshold   = 1.00e-06
  Density threshold  = 1.00e-06
  Integral threshold = 1.00e-12

  ==> Primary Basis <==

  Basis Set: CC-PVTZ
    Blend: CC-PVTZ
    Number of shells: 64
    Number of basis functions: 176
    Number of Cartesian functions: 200
    Spherical Harmonics?: true
    Max angular momentum: 3

  ==> DFT Potential <==

   => LibXC <=

    Version 7.0.0
    S. Lehtola, C. Steigemann, M. J.T. Oliveira, and M. A.L. Marques.,  SoftwareX 7, 1–5 (2018) (10.1016/j.softx.2017.11.002)

   => Composite Functional: B3LYP <= 

    B3LYP Hyb-GGA Exchange-Correlation Functional

    P. J. Stephens, F. J. Devlin, C. F. Chabalowski, and M. J. Frisch.,  J. Phys. Chem. 98, 11623 (1994) (10.1021/j100096a001)

    Deriv               =              1
    GGA                 =           TRUE
    Meta                =          FALSE

    Exchange Hybrid     =           TRUE
    MP2 Hybrid          =          FALSE

   => Exchange Functionals <=

    0.0800   Slater exchange
    0.7200         Becke 88

   => Exact (HF) Exchange <=

    0.2000               HF 

   => Correlation Functionals <=

    0.1900   Vosko, Wilk & Nusair (VWN5_RPA)
    0.8100   Lee, Yang & Parr

   => LibXC Density Thresholds  <==

    XC_HYB_GGA_XC_B3LYP:  1.00E-15 

   => Molecular Quadrature <=

    Radial Scheme          =       TREUTLER
    Pruning Scheme         =           NONE
    Nuclear Scheme         =       TREUTLER

    Blocking Scheme        =         OCTREE
    BS radius alpha        =              1
    Pruning alpha          =              1
    Radial Points          =             75
    Spherical Points       =            302
    Total Points           =         172618
    Total Blocks           =           1329
    Max Points             =            256
    Max Functions          =            176
    Weights Tolerance      =       1.00E-15

   => Loading Basis Set <=

    Name: (CC-PVTZ AUX)
    Role: JKFIT
    Keyword: DF_BASIS_SCF
    atoms 1-2    entry C          line   125 file /home/vdwv/DIPLOM_ITMO/CALCULATIONS_AND_SOFTS/softwares/Psi4_Shenanigans/psi4conda/share/psi4/basis/cc-pvtz-jkfit.gbs 
    atoms 3, 7   entry O          line   229 file /home/vdwv/DIPLOM_ITMO/CALCULATIONS_AND_SOFTS/softwares/Psi4_Shenanigans/psi4conda/share/psi4/basis/cc-pvtz-jkfit.gbs 
    atoms 4-6, 8 entry H          line    51 file /home/vdwv/DIPLOM_ITMO/CALCULATIONS_AND_SOFTS/softwares/Psi4_Shenanigans/psi4conda/share/psi4/basis/cc-pvtz-jkfit.gbs 

  ==> Integral Setup <==

  DFHelper Memory: AOs need 0.108 GiB; user supplied 0.108 GiB. 
  SCF_SUBTYPE=INCORE selected. In-core MEM_DF algorithm will be used.
  Using in-core AOs.

  ==> MemDFJK: Density-Fitted J/K Matrices <==

    J tasked:                   Yes
    K tasked:                   Yes
    wK tasked:                   No
    OpenMP threads:               1
    Memory [MiB]:               110
    Algorithm:                 Core
    Schwarz Cutoff:           1E-12
    Mask sparsity (%):       0.6521
    Fitting Condition:        1E-10

   => Auxiliary Basis Set <=

  Basis Set: (CC-PVTZ AUX)
    Blend: CC-PVTZ-JKFIT
    Number of shells: 140
    Number of basis functions: 436
    Number of Cartesian functions: 524
    Spherical Harmonics?: true
    Max angular momentum: 4

  Cached 33.3% of DFT collocation blocks in 0.241 [GiB].

  Minimum eigenvalue in the overlap matrix is 8.4394290272E-04.
  Reciprocal condition number of the overlap matrix is 1.3071181857E-04.
    Using symmetric orthogonalization.

  ==> Pre-Iterations <==

  SCF Guess: Superposition of Atomic Densities via on-the-fly atomic UHF (no occupation information).

   -------------------------
    Irrep   Nso     Nmo    
   -------------------------
     A'       114     114 
     A"        62      62 
   -------------------------
    Total     176     176
   -------------------------

  ==> Iterations <==

                           Total Energy        Delta E     RMS |[F,P]|

   @DF-RKS iter SAD:  -227.77671934526563   -2.27777e+02   0.00000e+00 
    Occupation by irrep:
             Ap   App 
    DOCC [    13,    3 ]
    NA   [    13,    3 ]
    NB   [    13,    3 ]

   @DF-RKS iter   1:  -221.98492358686116    5.79180e+00   2.20566e-02 DIIS/ADIIS
   @DF-RKS iter   2:  -221.61309944728194    3.71824e-01   3.33320e-02 DIIS/ADIIS
   @DF-RKS iter   3:  -228.27960113218617   -6.66650e+00   1.08741e-02 DIIS/ADIIS
   @DF-RKS iter   4:  -228.80580843560585   -5.26207e-01   7.67777e-03 DIIS/ADIIS
   @DF-RKS iter   5:  -229.08800917763324   -2.82201e-01   3.86742e-03 DIIS/ADIIS
   @DF-RKS iter   6:  -229.17620864874749   -8.81995e-02   8.86441e-04 DIIS/ADIIS
   @DF-RKS iter   7:  -229.18112187351298   -4.91322e-03   8.60392e-05 DIIS
   @DF-RKS iter   8:  -229.18116905697929   -4.71835e-05   4.34291e-05 DIIS
   @DF-RKS iter   9:  -229.18117852509121   -9.46811e-06   1.70473e-05 DIIS
   @DF-RKS iter  10:  -229.18118019818493   -1.67309e-06   1.13384e-06 DIIS
   @DF-RKS iter  11:  -229.18118020780062   -9.61569e-09   1.85586e-07 DIIS
  Energy and wave function converged.


  ==> Post-Iterations <==

   Electrons on quadrature grid:
      Ntotal   =   31.9999832243 ; deviation = -1.678e-05 

    Orbital Energies [Eh]
    ---------------------

    Doubly Occupied:                                                      

       1Ap   -19.179219     2Ap   -19.121661     3Ap   -10.313697  
       4Ap   -10.190913     5Ap    -1.114145     6Ap    -1.024831  
       7Ap    -0.766467     8Ap    -0.618854     9Ap    -0.498658  
      10Ap    -0.486154     1App   -0.477629    11Ap    -0.419649  
      12Ap    -0.403989     2App   -0.400761     3App   -0.331881  
      13Ap    -0.287079  

    Virtual:                                                              

       4App   -0.000769    14Ap     0.027805    15Ap     0.056599  
      16Ap     0.103239     5App    0.110084    17Ap     0.158678  
      18Ap     0.196951    19Ap     0.239733     6App    0.253070  
      20Ap     0.270510     7App    0.313190    21Ap     0.332979  
      22Ap     0.371092    23Ap     0.395794    24Ap     0.432476  
       8App    0.433779    25Ap     0.452705    26Ap     0.477002  
      27Ap     0.527649     9App    0.534263    28Ap     0.559731  
      29Ap     0.570441    10App    0.601397    30Ap     0.609399  
      31Ap     0.698887    11App    0.717066    12App    0.731343  
      32Ap     0.735207    13App    0.783426    33Ap     0.821736  
      14App    0.868965    34Ap     0.900512    35Ap     0.953175  
      15App    0.982695    36Ap     1.039223    16App    1.045917  
      37Ap     1.056068    38Ap     1.098012    17App    1.138584  
      39Ap     1.196950    40Ap     1.200913    41Ap     1.250945  
      18App    1.299290    42Ap     1.305508    43Ap     1.332542  
      19App    1.360036    44Ap     1.431908    45Ap     1.471823  
      46Ap     1.503709    20App    1.547571    47Ap     1.650278  
      48Ap     1.684469    21App    1.725526    49Ap     1.912818  
      22App    1.913164    23App    1.972641    50Ap     2.027882  
      51Ap     2.045568    52Ap     2.117372    24App    2.135313  
      53Ap     2.187627    54Ap     2.330806    25App    2.334773  
      55Ap     2.339506    56Ap     2.449233    26App    2.506667  
      57Ap     2.518092    58Ap     2.547055    59Ap     2.626616  
      60Ap     2.743524    27App    2.747969    28App    2.770923  
      61Ap     2.842078    29App    2.851286    30App    2.937720  
      62Ap     2.939370    63Ap     2.947579    31App    2.958242  
      64Ap     3.010653    32App    3.058552    65Ap     3.094484  
      33App    3.129249    66Ap     3.138081    34App    3.227210  
      67Ap     3.250416    68Ap     3.266870    35App    3.286899  
      36App    3.291242    69Ap     3.353668    70Ap     3.399945  
      37App    3.417751    38App    3.446591    71Ap     3.452805  
      72Ap     3.518612    39App    3.597978    73Ap     3.613904  
      74Ap     3.692507    75Ap     3.734721    40App    3.762828  
      41App    3.790293    76Ap     3.803034    77Ap     3.836586  
      42App    3.841542    78Ap     3.928708    79Ap     3.976686  
      80Ap     4.003011    43App    4.015521    44App    4.056932  
      45App    4.107767    81Ap     4.127918    46App    4.180024  
      82Ap     4.220197    83Ap     4.271956    47App    4.362323  
      84Ap     4.382875    85Ap     4.396973    86Ap     4.457891  
      87Ap     4.653304    48App    4.771940    88Ap     4.827225  
      89Ap     4.868344    90Ap     4.920280    49App    5.038831  
      91Ap     5.076248    50App    5.123702    92Ap     5.163104  
      51App    5.166691    93Ap     5.189801    94Ap     5.216632  
      52App    5.240985    95Ap     5.253357    96Ap     5.351227  
      53App    5.399471    54App    5.521562    97Ap     5.590263  
      98Ap     5.702885    55App    5.795295    99Ap     5.804479  
      56App    5.950023   100Ap     6.083031   101Ap     6.198712  
      57App    6.219552    58App    6.324547   102Ap     6.393091  
      59App    6.459043   103Ap     6.526926    60App    6.576199  
     104Ap     6.637868   105Ap     6.729954    61App    6.737889  
     106Ap     6.852933    62App    6.867145   107Ap     7.017821  
     108Ap     7.152181   109Ap     7.260054   110Ap     7.414002  
     111Ap     9.067848   112Ap    12.037856   113Ap    12.920792  
     114Ap    13.363979  

    Final Occupation by Irrep:
             Ap   App 
    DOCC [    13,    3 ]
    NA   [    13,    3 ]
    NB   [    13,    3 ]

  @DF-RKS Final Energy:  -229.18118020780062

   => Energetics <=

    Nuclear Repulsion Energy =            121.1914499474481346
    One-Electron Energy =                -552.3059771320032496
    Two-Electron Energy =                 225.8312387129276999
    DFT Exchange-Correlation Energy =     -23.8978917361731860
    Empirical Dispersion Energy =           0.0000000000000000
    VV10 Nonlocal Energy =                  0.0000000000000000
    Total Energy =                       -229.1811802078006224

Computation Completed


Properties will be evaluated at   0.000000,   0.000000,   0.000000 [a0]

Properties computed using the SCF density matrix


 Multipole Moments:

 ------------------------------------------------------------------------------------
     Multipole            Electronic (a.u.)      Nuclear  (a.u.)        Total (a.u.)
 ------------------------------------------------------------------------------------

 L = 1.  Multiply by 2.5417464519 to convert [e a0] to [Debye]
 Dipole X            :         -2.2095753            2.0746537           -0.1349216
 Dipole Y            :          2.5093349           -3.1648696           -0.6555348
 Dipole Z            :          0.0000000            0.0000000            0.0000000
 Magnitude           :                                                    0.6692755

 ------------------------------------------------------------------------------------

*** tstop() called on debian at Thu May  7 17:29:34 2026
Module time:
	user time   =      21.38 seconds =       0.36 minutes
	system time =       0.27 seconds =       0.00 minutes
	total time  =         22 seconds =       0.37 minutes
Total time:
	user time   =      21.38 seconds =       0.36 minutes
	system time =       0.27 seconds =       0.00 minutes
	total time  =         22 seconds =       0.37 minutes

    Psi4 stopped on: Thursday, 07 May 2026 05:29PM
    Psi4 wall time for execution: 0:00:21.73

*** Psi4 exiting successfully. Buy a developer a beer!
