

     ************************************************************************
     *************** Dalton - An Electronic Structure Program ***************
     ************************************************************************

    This is output from DALTON release Dalton2025.0-dev (2025)
         ( Web site: http://daltonprogram.org )

   ----------------------------------------------------------------------------

    NOTE:
     
    Dalton is an experimental code for the evaluation of molecular
    properties using (MC)SCF, DFT, CI, and CC wave functions.
    The authors accept no responsibility for the performance of
    the code or for the correctness of the results.
     
    The code (in whole or part) is provided under a licence and
    is not to be reproduced for further distribution without
    the written permission of the authors or their representatives.
     
    See the home page "http://daltonprogram.org" for further information.
     
    If results obtained with this code are published,
    the appropriate citations would be both of:
     
       K. Aidas, C. Angeli, K. L. Bak, V. Bakken,
       R. Bast, L. Boman, O. Christiansen, R. Cimiraglia,
       S. Coriani, P. Dahle, E. K. Dalskov, U. Ekstroem,
       T. Enevoldsen, J. J. Eriksen, P. Ettenhuber, B. Fernandez,
       L. Ferrighi, H. Fliegl, L. Frediani, K. Hald, A. Halkier,
       C. Haettig, H. Heiberg, T. Helgaker, A. C. Hennum,
       H. Hettema, E. Hjertenaes, S. Hoest, I.-M. Hoeyvik,
       M. F. Iozzi, B. Jansik, H. J. Aa. Jensen, D. Jonsson,
       P. Joergensen, J. Kauczor, S. Kirpekar,
       T. Kjaergaard, W. Klopper, S. Knecht, R. Kobayashi, H. Koch,
       J. Kongsted, A. Krapp, K. Kristensen, A. Ligabue,
       O. B. Lutnaes, J. I. Melo, K. V. Mikkelsen, R. H. Myhre,
       C. Neiss, C. B. Nielsen, P. Norman, J. Olsen,
       J. M. H. Olsen, A. Osted, M. J. Packer, F. Pawlowski,
       T. B. Pedersen, P. F. Provasi, S. Reine, Z. Rinkevicius,
       T. A. Ruden, K. Ruud, V. Rybkin, P. Salek, C. C. M. Samson,
       A. Sanchez de Meras, T. Saue, S. P. A. Sauer,
       B. Schimmelpfennig, K. Sneskov, A. H. Steindal,
       K. O. Sylvester-Hvid, P. R. Taylor, A. M. Teale,
       E. I. Tellgren, D. P. Tew, A. J. Thorvaldsen, L. Thoegersen,
       O. Vahtras, M. A. Watson, D. J. D. Wilson, M. Ziolkowski
       and H. Agren,
       "The Dalton quantum chemistry program system",
       WIREs Comput. Mol. Sci. 2014, 4:269-284 (doi: 10.1002/wcms.1172)
     
    and
     
       Dalton, a molecular electronic structure program,
       Release Dalton2025.0-dev (2025), see http://daltonprogram.org
   ----------------------------------------------------------------------------

    Authors in alphabetical order (Major contribution(s) in parenthesis):

  Kestutis Aidas,              Vilnius University,        Lithuania   (QM/MM)
  Celestino Angeli,            University of Ferrara,     Italy       (NEVPT2)
  Juan J. Aucar,               Northeast National UniversiArgentina   (LRESC, Relativistic Effects on NMR Shieldings and EFG)
  Keld L. Bak,                 UNI-C,                     Denmark     (AOSOPPA, non-adiabatic coupling, magnetic properties)
  Vebjoern Bakken,             University of Oslo,        Norway      (DALTON; geometry optimizer, symmetry detection)
  Radovan Bast,                UiT The Arctic U. of NorwayNorway      (DALTON installation and execution frameworks)
  Pablo Baudin,                University of Valencia,    Spain       (Cholesky excitation energies)
  Linus Boman,                 NTNU,                      Norway      (Cholesky decomposition and subsystems)
  Bruno N. Cabral Tenorio,     Technical Univ. of Denmark,Denmark     (Lanczos-based CC methods)
  Ove Christiansen,            Aarhus University,         Denmark     (CC module)
  Renzo Cimiraglia,            University of Ferrara,     Italy       (NEVPT2)
  Sonia Coriani,               Technical Univ. of Denmark,Denmark     (CC and RESPONS modules)
  Janusz Cukras,               University of Warsaw,      Poland      (MChD in RESPONS)
  Paal Dahle,                  University of Oslo,        Norway      (Parallelization)
  Erik K. Dalskov,             UNI-C,                     Denmark     (SOPPA)
  Thomas Enevoldsen,           Univ. of Southern Denmark, Denmark     (SOPPA)
  Janus J. Eriksen,            Aarhus University,         Denmark     (Polarizable embedding, TDA)
  Rasmus Faber,                Technical Univ. of Denmark,Denmark     (Vib.avg. NMR w. SOPPA, parallel AO-SOPPA, CVS-CC and EOMCC)
  Tobias Fahleson,             KTH Stockholm,             Sweden      (Damped cubic response)
  Berta Fernandez,             U. of Santiago de CompostelSpain       (Doublet spin, ESR in RESPONS)
  Lara Ferrighi,               Aarhus University,         Denmark     (PCM Cubic response)
  Heike Fliegl,                University of Oslo,        Norway      (CCSD(R12))
  Luca Frediani,               UiT The Arctic U. of NorwayNorway      (PCM)
  Emmanuel Fromager,           Univ. Strasbourg,          France      (MC-srDFT)
  Bin Gao,                     UiT The Arctic U. of NorwayNorway      (Gen1Int library)
  Andre S. P. Gomes,           CNRS/Universite de Lille,  France      (Frozen density embedding)
  Christof Haettig,            Ruhr-University Bochum,    Germany     (CC module)
  Kasper Hald,                 Aarhus University,         Denmark     (CC module)
  Asger Halkier,               Aarhus University,         Denmark     (CC module)
  Frederik Beyer Hansen,       University of Copenhagen,  Denmark     (Parallel AO-SOPPA)
  Erik D. Hedegaard,           Univ. of Southern Denmark, Denmark     (Polarizable embedding, QM/MM, and MC-srDFT)
  Hanne Heiberg,               University of Oslo,        Norway      (Geometry analysis, selected one-electron integrals)
  Trygve Helgaker,             University of Oslo,        Norway      (DALTON; ABACUS, ERI, DFT modules, London, and much more)
  Alf Christian Hennum,        University of Oslo,        Norway      (Parity violation)
  Hinne Hettema,               University of Auckland,    New Zealand (Quadratic response in RESPONS; SIRIUS supersymmetry)
  Andreas E. Hillers-Bendtsen, University of Copenhagen,  Denmark     (MP3)
  Eirik Hjertenaes,            NTNU,                      Norway      (Cholesky decomposition)
  Nicolai Machholdt Hoeyer,    Aarhus University,         Denmark     (MP3)
  Pi A. B. Haase,              University of Copenhagen,  Denmark     (Triplet AO-SOPPA)
  Maria Francesca Iozzi,       University of Oslo,        Norway      (RPA)
  Christoph Jacob,             TU Braunschweig            Germany     (Frozen density embedding)
  Brano Jansik,                Technical Univ. of Ostrava Czech Rep.  (DFT cubic response)
  Hans Joergen Aa. Jensen,     Univ. of Southern Denmark, Denmark     (DALTON; SIRIUS, RESPONS, ABACUS, MC-srDFT, and much more)
  Dan Jonsson,                 UiT The Arctic U. of NorwayNorway      (Cubic response in RESPONS module)
  Poul Joergensen,             Aarhus University,         Denmark     (RESPONS, ABACUS, and CC modules)
  Maciej Kaminski,             University of Warsaw,      Poland      (CPPh in RESPONS)
  Joanna Kauczor,              Linkoeping University,     Sweden      (Complex polarization propagator (CPP) module)
  Sheela Kirpekar,             Univ. of Southern Denmark, Denmark     (Mass-velocity & Darwin integrals)
  Frederik Oersted Kjeldal,    Technical Univ. of Denmark,Denmark     (MP3)
  Erik Kjellgren,              Univ. of Southern Denmark, Denmark     (MC-srDFT)
  Wim Klopper,                 KIT Karlsruhe,             Germany     (R12 code in CC, SIRIUS, and ABACUS modules)
  Stefan Knecht,               ETH Zurich,                Switzerland (Parallel CI and MCSCF, MC-srDFT)
  Rika Kobayashi,              Australian National Univ., Australia   (DIIS in CC, London in MCSCF)
  Henrik Koch,                 NTNU,                      Norway      (CC module, Cholesky decomposition)
  Jacob Kongsted,              Univ. of Southern Denmark, Denmark     (Polarizable embedding, polarizable density embedding, QM/MM)
  Andrea Ligabue,              University of Modena,      Italy       (CTOCD, AOSOPPA)
  Nanna H. List,               Univ. of Southern Denmark, Denmark     (Polarizable embedding)
  Ola B. Lutnaes,              University of Oslo,        Norway      (DFT Hessian)
  Juan I. Melo,                University of Buenos Aires,Argentina   (LRESC, Relativistic Effects on NMR Shieldings)
  Kurt V. Mikkelsen,           University of Copenhagen,  Denmark     (MC-SCRF, QM/MM, and MP3)
  Rolf H. Myhre,               NTNU,                      Norway      (Subsystems and CC3)
  Christian Neiss,             Univ. Erlangen-Nuernberg,  Germany     (CCSD(R12))
  Christian B. Nielsen,        University of Copenhagen,  Denmark     (QM/MM)
  Patrick Norman,              KTH Stockholm,             Sweden      (Cubic response and complex frequency response in RESPONS)
  Jeppe Olsen,                 Aarhus University,         Denmark     (SIRIUS CI/density modules)
  Jogvan Magnus H. Olsen,      Aarhus University,         Denmark     (Polarizable embedding and polarizable density embedding)
  Anders Osted,                Copenhagen University,     Denmark     (QM/MM)
  Martin J. Packer,            University of Sheffield,   UK          (SOPPA)
  Filip Pawlowski,             Kazimierz Wielki UniversityPoland      (CC3)
  Morten N. Pedersen,          Univ. of Southern Denmark, Denmark     (Polarizable embedding)
  Thomas B. Pedersen,          University of Oslo,        Norway      (Cholesky decomposition)
  Patricio F. Provasi,         University of Northeastern,Argentina   (Analysis of coupling constants in localized orbitals)
  Peter Reinholdt,             Univ. of Southern Denmark, Denmark     (Polarizable embedding and polarizable density embedding)
  Zilvinas Rinkevicius,        KTH Stockholm,             Sweden      (open-shell DFT, ESR)
  Elias Rudberg,               KTH Stockholm,             Sweden      (DFT grid and basis info)
  Torgeir A. Ruden,            University of Oslo,        Norway      (Numerical derivatives in ABACUS)
  Kenneth Ruud,                UiT The Arctic U. of NorwayNorway      (DALTON; ABACUS magnetic properties and much more)
  Pawel Salek,                 KTH Stockholm,             Sweden      (DALTON; DFT code)
  Claire C. M. Samson,         University of Karlsruhe    Germany     (Boys localization, r12 integrals in ERI)
  Alfredo Sanchez de Meras,    University of Valencia,    Spain       (CC module, Cholesky decomposition)
  Trond Saue,                  Paul Sabatier University,  France      (direct Fock matrix construction)
  Stephan P. A. Sauer,         University of Copenhagen,  Denmark     (SOPPA(CCSD), SOPPA prop., AOSOPPA, vibrational g-factors)
  Bernd Schimmelpfennig,       Forschungszentrum KarlsruheGermany     (AMFI module)
  Anna K. Schnack-Petersen,    University of Copenhagen,  Denmark     (RPA(D) and HRPA(D) properties in AOSOPPA)
  Kristian Sneskov,            Aarhus University,         Denmark     (Polarizable embedding, QM/MM)
  Arnfinn H. Steindal,         UiT The Arctic U. of NorwayNorway      (parallel QM/MM, polarizable embedding)
  Casper Steinmann,            Aalborg University,        Denmark     (QFIT, polarizable embedding)
  K. O. Sylvester-Hvid,        University of Copenhagen,  Denmark     (MC-SCRF)
  Peter R. Taylor,             VLSCI/Univ. of Melbourne,  Australia   (Symmetry handling ABACUS, integral transformation)
  Andrew M. Teale,             University of Nottingham,  England     (DFT-AC, DFT-D)
  David P. Tew,                University of Bristol,     England     (CCSD(R12))
  Julien Toulouse,             Sorbonne Univ.,            France      (MC-srDFT)
  Olav Vahtras,                KTH Stockholm,             Sweden      (Triplet response, spin-orbit, ESR, TDDFT, open-shell DFT)
  Lucas Visscher,              Vrije Universiteit AmsterdaNetherlands (Frozen density embedding)
  David J. Wilson,             La Trobe University,       Australia   (DFT Hessian and DFT magnetizabilities)
  Luna Zamok,                  University of Copenhagen,  Denmark     (Block Lanczos RPA solver in SOPPA module)
  Hans Agren,                  KTH Stockholm,             Sweden      (SIRIUS module, RESPONS, MC-SCRF solvation)
 --------------------------------------------------------------------------------

     Date and time (Linux)  : Thu May  7 17:36:13 2026
     Host name              : debian                                  

 * Work memory size             :    64000000 =  488.28 megabytes.

 * Directories for basis set searches:
   1) /home/vdwv/DIPLOM_ITMO/CALCULATIONS_AND_SOFTS/softwares/Dalton_Shenanigans/dalton/dalton/build/diplom_files/ch3cooh_acetic_acid/dft/ch3cooh_acetic_acid_dft_b3lyp_ccpvdz
   2) /home/vdwv/DIPLOM_ITMO/CALCULATIONS_AND_SOFTS/softwares/Dalton_Shenanigans/dalton/dalton/build/basis


Compilation information
-----------------------

 Who compiled             | vdwv
 Host                     | debian
 System                   | Linux-6.12.73+deb13-amd64
 CMake generator          | Unix Makefiles
 Processor                | x86_64
 64-bit integers          | OFF
 MPI                      | OFF
 Fortran compiler         | /usr/bin/gfortran
 Fortran compiler version | GNU Fortran (Debian 14.2.0-19) 14.2.0
 C compiler               | /usr/bin/gcc
 C compiler version       | gcc (Debian 14.2.0-19) 14.2.0
 C++ compiler             | /usr/bin/g++
 C++ compiler version     | g++ (Debian 14.2.0-19) 14.2.0
 BLAS                     | /opt/intel/oneapi/mkl/2025.3/lib/intel64/libmkl_gf
                          | _lp64.so;/opt/intel/oneapi/mkl/2025.3/lib/intel64/
                          | libmkl_sequential.so;/opt/intel/oneapi/mkl/2025.3/
                          | lib/intel64/libmkl_core.so;/usr/lib/x86_64-linux-g
                          | nu/libpthread.a;/usr/lib/x86_64-linux-gnu/libm.so
 LAPACK                   | /opt/intel/oneapi/mkl/2025.3/lib/intel64/libmkl_la
                          | pack95_lp64.a;/opt/intel/oneapi/mkl/2025.3/lib/int
                          | el64/libmkl_gf_lp64.so
 Static linking           | OFF
 Last Git revision        | 1892235f9264b9be21ec2fefe6e0081d659ab244
 Git branch               | master
 Configuration time       | 2026-05-04 17:50:26.788788

 * Sequential calculation.


   Content of the .dal input file
 ----------------------------------

BASIS
cc-pVDZ
Acetic acid CH3COOH using the cc-pVDZ basis
Using automatic symmetry detection
AtomTypes=3 Angstrom
Charge=6.0 Atoms=2
C1    1.060     -0.916      0.000
C2    0.000      0.153      0.000
Charge=8.0 Atoms=2
O3    0.192      1.350      0.000
O7   -1.247     -0.381      0.000
Charge=1.0 Atoms=4
H4    2.053     -0.451      0.000
H5    0.941     -1.558      0.886
H6    0.941     -1.558     -0.886
H8   -1.859      0.378      0.000

**DALTON INPUT
.RUN WAVE FUN
**WAVE FUN
.DFT
 B3LYP
**END OF



       *******************************************************************
       *********** Output from DALTON general input processing ***********
       *******************************************************************

 --------------------------------------------------------------------------------
   Overall default print level:    0
   Print level for DALTON.STAT:    1

    HERMIT 1- and 2-electron integral sections will be executed
    "Old" integral transformation used (limited to max 255 basis functions)
    Wave function sections will be executed (SIRIUS module)
 --------------------------------------------------------------------------------


   ****************************************************************************
   *************** Output of molecule and basis set information ***************
   ****************************************************************************


    The two title cards from your ".mol" input:
    --------------------------------------------------------------------------------
 1: Acetic acid CH3COOH using the cc-pVDZ basis
 2: Using automatic symmetry detection
    --------------------------------------------------------------------------------

  Coordinates are entered in Angstrom and converted to atomic units.
          - Conversion factor : 1 bohr = 0.52917721080 A

  Atomic type no.    1
  --------------------
  Nuclear charge:   6.00000
  Number of symmetry independent centers:    2
  Number of basis sets to read;    2
  Basis set file used for this atomic type with Z =   6 :
     "/home/vdwv/DIPLOM_ITMO/CALCULATIONS_AND_SOFTS/softwares/Dalton_Shenanigans/dalton/dalton/build/basis/cc-pVDZ"

  Atomic type no.    2
  --------------------
  Nuclear charge:   8.00000
  Number of symmetry independent centers:    2
  Number of basis sets to read;    2
  Basis set file used for this atomic type with Z =   8 :
     "/home/vdwv/DIPLOM_ITMO/CALCULATIONS_AND_SOFTS/softwares/Dalton_Shenanigans/dalton/dalton/build/basis/cc-pVDZ"

  Atomic type no.    3
  --------------------
  Nuclear charge:   1.00000
  Number of symmetry independent centers:    4
  Number of basis sets to read;    2
  Basis set file used for this atomic type with Z =   1 :
     "/home/vdwv/DIPLOM_ITMO/CALCULATIONS_AND_SOFTS/softwares/Dalton_Shenanigans/dalton/dalton/build/basis/cc-pVDZ"


                      SYMADD: Addition of symmetry requested
                      --------------------------------------

 Symmetry test threshold:  5.00E-06

@  The molecule has been centered at center of mass and rotated
@  so the principal axes of inertia are along coordinate axes.

 Symmetry class found: C(s)           

 Symmetry Independent Centres             
 ----------------------------
O7     8 :     -1.22222755    -2.10412330     0.00000000  Isotope  1
O3     8 :     -1.25607379     2.14954955     0.00000000  Isotope  1
C2     6 :     -0.07341216     0.18750750     0.00000000  Isotope  1
C1     6 :      2.76042479    -0.06287257     0.00000000  Isotope  1
H8     1 :     -3.03130594    -1.75486854     0.00000000  Isotope  1
H5     1 :      3.37160575    -1.13473638     1.67429735  Isotope  1
H4     1 :      3.62673747     1.81938691     0.00000000  Isotope  1

 The following symmetry element was found:   Z        


                         SYMGRP: Point group information
                         -------------------------------

@    Full point group is: C(s)           
@    Represented as:      Cs 

@  * The irrep name for each symmetry:    1: A'     2: A" 

   * The point group was generated by:

      Reflection in the xy-plane

   * Group multiplication table

        |  E   Oxy
   -----+----------
     E  |  E   Oxy
    Oxy | Oxy   E 

   * Character table

        |  E   Oxy
   -----+----------
    A'  |   1    1
    A"  |   1   -1

   * Direct product table

        | A'   A" 
   -----+----------
    A'  | A'   A" 
    A"  | A"   A' 


                                 Isotopic Masses
                                 ---------------

                           C1         12.000000
                           C2         12.000000
                           O3         15.994915
                           O7         15.994915
                           H4          1.007825
                           H5  _1      1.007825
                           H5  _2      1.007825
                           H8          1.007825

                       Total mass:    60.021130 amu
                       Natural abundance:  97.285 %

 Center-of-mass coordinates (a.u.):   -0.000000   -0.000000    0.000000
 Center-of-mass coordinates (Angs):   -0.000000   -0.000000    0.000000


  Atoms and basis sets
  --------------------

  Number of atom types :    3
  Total number of atoms:    8

  Basis set used is "cc-pVDZ" from the basis set library.

  label    atoms   charge   prim   cont     basis
  ----------------------------------------------------------------------
  C2          2    6.0000    26    14      [9s4p1d|3s2p1d]                                    
  O7          2    8.0000    26    14      [9s4p1d|3s2p1d]                                    
  H8          4    1.0000     7     5      [4s1p|2s1p]                                        
  ----------------------------------------------------------------------
  total:      8   32.0000   132    76
  ----------------------------------------------------------------------
  Spherical harmonic basis used.

  Threshold for neglecting AO integrals:  1.00D-12


  Cartesian Coordinates (bohr)
  ----------------------------

  Total number of coordinates:   24
  C1      :     1  x   2.7604247884    2  y  -0.0628725670    3  z   0.0000000000
  C2      :     4  x  -0.0734121648    5  y   0.1875074960    6  z   0.0000000000
  O3      :     7  x  -1.2560737942    8  y   2.1495495518    9  z   0.0000000000
  O7      :    10  x  -1.2222275536   11  y  -2.1041233012   12  z   0.0000000000
  H4      :    13  x   3.6267374741   14  y   1.8193869064   15  z   0.0000000000
  H5  / 1 :    16  x   3.3716057527   17  y  -1.1347363836   18  z   1.6742973467
  H5  / 2 :    19  x   3.3716057527   20  y  -1.1347363836   21  z  -1.6742973467
  H8      :    22  x  -3.0313059409   23  y  -1.7548685370   24  z   0.0000000000


  Cartesian Coordinates (xyz format; angstrom)
  --------------------------------------------

    8

  C        1.4607538901           -0.0332707296            0.0000000000
  C       -0.0388480446            0.0992246938            0.0000000000
  O       -0.6646856270            1.1374926363            0.0000000000
  O       -0.6467749678           -1.1134540997            0.0000000000
  H        1.9191868209            0.9627780885            0.0000000000
  H        1.7841769281           -0.6004766345            0.8860000000
  H        1.7841769281           -0.6004766345           -0.8860000000
  H       -1.6040980229           -0.9286364377            0.0000000000


  Symmetry Coordinates
  --------------------

  Number of coordinates in each symmetry:    15    9

  Symmetry  A'  ( 1)

    1   C1    x    1
    2   C1    y    2
    3   C2    x    4
    4   C2    y    5
    5   O3    x    7
    6   O3    y    8
    7   O7    x   10
    8   O7    y   11
    9   H4    x   13
   10   H4    y   14
   11   H5    x    [ 16  +   19 ]/2
   12   H5    y    [ 17  +   20 ]/2
   13   H5    z    [ 18  -   21 ]/2
   14   H8    x   22
   15   H8    y   23

  Symmetry  A"  ( 2)

   16   C1    z    3
   17   C2    z    6
   18   O3    z    9
   19   O7    z   12
   20   H4    z   15
   21   H5    x    [ 16  -   19 ]/2
   22   H5    y    [ 17  -   20 ]/2
   23   H5    z    [ 18  +   21 ]/2
   24   H8    z   24


   Interatomic separations (in Angstrom):
   --------------------------------------

            C1          C2          O3          O7          H4          H5  _1
            ------      ------      ------      ------      ------      ------
 C1    :    0.000000
 C2    :    1.505444    0.000000
 O3    :    2.426557    1.212301    0.000000
 O7    :    2.368222    1.356527    2.251018    0.000000
 H4    :    1.096483    2.140006    2.589773    3.300742    0.000000
 H5  _1:    1.100600    2.144294    3.130888    2.637739    1.801940    0.000000
 H5  _2:    1.100600    2.144294    3.130888    2.637739    1.801940    1.772000
 H8    :    3.192961    1.872567    2.269666    0.975000    3.998873    3.517541

            H5  _2      H8    
            ------      ------
 H5  _2:    0.000000
 H8    :    3.517541    0.000000


  Max    interatomic separation is    3.9989 Angstrom (    7.5568 Bohr)
  between atoms    8 and    5, "H8    " and "H4    ".

  Min HX interatomic separation is    0.9750 Angstrom (    1.8425 Bohr)

  Min YX interatomic separation is    1.2123 Angstrom (    2.2909 Bohr)


  Bond distances (Angstrom):
  --------------------------

                  atom 1     atom 2       distance
                  ------     ------       --------
  bond distance:  C2         C1           1.505444
  bond distance:  O3         C2           1.212301
  bond distance:  O7         C2           1.356527
  bond distance:  H4         C1           1.096483
  bond distance:  H5  _1     C1           1.100600
  bond distance:  H5  _2     C1           1.100600
  bond distance:  H8         O7           0.975000


  Bond angles (degrees):
  ----------------------

                  atom 1     atom 2     atom 3         angle
                  ------     ------     ------         -----
  bond angle:     C2         C1         H4           109.665
  bond angle:     C2         C1         H5  _1       109.760
  bond angle:     C2         C1         H5  _2       109.760
  bond angle:     H4         C1         H5  _1       110.200
  bond angle:     H4         C1         H5  _2       110.200
  bond angle:     H5  _1     C1         H5  _2       107.223
  bond angle:     C1         C2         O3           126.130
  bond angle:     C1         C2         O7           111.576
  bond angle:     O3         C2         O7           122.295
  bond angle:     C2         O7         H8           105.698




 Principal moments of inertia (u*A**2) and principal axes
 --------------------------------------------------------

   IA      44.769632          1.000000    0.000000    0.000000
   IB      53.685392          0.000000    1.000000    0.000000
   IC      95.290469          0.000000    0.000000    1.000000


 Rotational constants
 --------------------

               A                   B                   C

          11288.4334           9413.7155           5303.5630 MHz
            0.376542            0.314008            0.176908 cm-1


@  Nuclear repulsion energy :  120.728113196986 Hartree


  Symmetry Orbitals
  -----------------

  Number of orbitals in each symmetry:          53   23


  Symmetry  A' ( 1)

    1     C1       1s         1
    2     C1       1s         2
    3     C1       1s         3
    4     C1       2px        4
    5     C1       2py        5
    6     C1       2px        7
    7     C1       2py        8
    8     C1       3d2-      10
    9     C1       3d0       12
   10     C1       3d2+      14
   11     C2       1s        15
   12     C2       1s        16
   13     C2       1s        17
   14     C2       2px       18
   15     C2       2py       19
   16     C2       2px       21
   17     C2       2py       22
   18     C2       3d2-      24
   19     C2       3d0       26
   20     C2       3d2+      28
   21     O3       1s        29
   22     O3       1s        30
   23     O3       1s        31
   24     O3       2px       32
   25     O3       2py       33
   26     O3       2px       35
   27     O3       2py       36
   28     O3       3d2-      38
   29     O3       3d0       40
   30     O3       3d2+      42
   31     O7       1s        43
   32     O7       1s        44
   33     O7       1s        45
   34     O7       2px       46
   35     O7       2py       47
   36     O7       2px       49
   37     O7       2py       50
   38     O7       3d2-      52
   39     O7       3d0       54
   40     O7       3d2+      56
   41     H4       1s        57
   42     H4       1s        58
   43     H4       2px       59
   44     H4       2py       60
   45     H5       1s        62 +   63
   46     H5       1s        64 +   65
   47     H5       2px       66 +   67
   48     H5       2py       68 +   69
   49     H5       2pz       70 -   71
   50     H8       1s        72
   51     H8       1s        73
   52     H8       2px       74
   53     H8       2py       75


  Symmetry  A" ( 2)

   54     C1       2pz        6
   55     C1       2pz        9
   56     C1       3d1-      11
   57     C1       3d1+      13
   58     C2       2pz       20
   59     C2       2pz       23
   60     C2       3d1-      25
   61     C2       3d1+      27
   62     O3       2pz       34
   63     O3       2pz       37
   64     O3       3d1-      39
   65     O3       3d1+      41
   66     O7       2pz       48
   67     O7       2pz       51
   68     O7       3d1-      53
   69     O7       3d1+      55
   70     H4       2pz       61
   71     H5       1s        62 -   63
   72     H5       1s        64 -   65
   73     H5       2px       66 -   67
   74     H5       2py       68 -   69
   75     H5       2pz       70 +   71
   76     H8       2pz       76

  Symmetries of electric field:  A' (1)  A' (1)  A" (2)

  Symmetries of magnetic field:  A" (2)  A" (2)  A' (1)


                     .---------------------------------------.
                     | Starting in Integral Section (HERMIT) |
                     `---------------------------------------'



 ***************************************************************************************
 ****************** Output from **INTEGRALS input processing (HERMIT) ******************
 ***************************************************************************************


 - Using defaults, no **INTEGRALS input found

 Default print level:        1

 Calculation of one- and two-electron Hamiltonian integrals.

 Center of mass  (bohr):     -0.000000000000     -0.000000000000      0.000000000000
 Operator center (bohr):      0.000000000000      0.000000000000      0.000000000000
 Gauge origin    (bohr):     -0.000000000000     -0.000000000000      0.000000000000
 Dipole origin   (bohr):     -0.000000000000     -0.000000000000      0.000000000000

Calculation of 2-electron integrals are postponed until they are needed.


     ************************************************************************
     ************************** Output from HERINT **************************
     ************************************************************************



                      Nuclear contribution to dipole moments
                      --------------------------------------

                 au               Debye          C m (/(10**-30)

      x      3.63430800         9.23748893        30.81294638
      y     -1.09373482        -2.77999644        -9.27306996


  Total CPU  time used in HERMIT:   0.08 seconds
  Total wall time used in HERMIT:   0.09 seconds


                        .----------------------------------.
                        | End of Integral Section (HERMIT) |
                        `----------------------------------'



                   .--------------------------------------------.
                   | Starting in Wave Function Section (SIRIUS) |
                   `--------------------------------------------'


 *** Output from Huckel module :

     Using EWMO model:          F
     Using EHT  model:          T
     Number of Huckel orbitals each symmetry:   19    5

 Huckel EHT eigenvalues for symmetry :  1
          -20.708172     -20.704737     -11.388320     -11.373258      -1.661179
           -1.402564      -1.231799      -0.783523      -0.724969      -0.691794
           -0.572973      -0.561236      -0.488054      -0.285554      -0.263345
           -0.220776      -0.213145      -0.193627      -0.181319

 Huckel EHT eigenvalues for symmetry :  2
           -0.761103      -0.597305      -0.580311      -0.311900      -0.201237

 **********************************************************************
 *SIRIUS* a direct, restricted step, second order MCSCF program       *
 **********************************************************************

 
     Date and time (Linux)  : Thu May  7 17:36:13 2026
     Host name              : debian                                  

 Title lines from ".mol" input file:
     Acetic acid CH3COOH using the cc-pVDZ basis
     Using automatic symmetry detection

 Print level on unit LUPRI =   2 is   0
 Print level on unit LUW4  =   2 is   5

@    Restricted, closed shell Kohn-Sham DFT calculation.

 Initial molecular orbitals are obtained according to
 ".MOSTART EHT   " input option

     Wave function specification
     ============================
@    Wave function type        --- KS-DFT ---
@    Number of closed shell electrons          32
@    Number of electrons in active shells       0
@    Total charge of the molecule               0

@    Spin multiplicity and 2 M_S                1         0
@    Total number of symmetries                 2 (point group: Cs )
@    Reference state symmetry                   1 (irrep name : A' )
 
     This is a DFT calculation of type: B3LYP
 Weighted mixed functional:
               HF exchange:    0.20000
                       VWN:    0.19000
                       LYP:    0.81000
                     Becke:    0.72000
                    Slater:    0.80000

     Orbital specifications
     ======================
@    Abelian symmetry species          All |    1    2
@                                          |  A'   A" 
                                       --- |  ---  ---
@    Total number of orbitals           76 |   53   23
@    Number of basis functions          76 |   53   23

      ** Automatic occupation of RKS orbitals **

      -- Initial occupation of symmetries is determined from extended Huckel guess.           
      -- Initial occupation of symmetries is :
@    Occupied SCF orbitals              16 |   13    3

     Maximum number of Fock   iterations      0
     Maximum number of DIIS   iterations     60
     Maximum number of QC-SCF iterations     60
     Threshold for SCF convergence     1.00D-05
 
     This is a DFT calculation of type: B3LYP
 Weighted mixed functional:
               HF exchange:    0.20000
                       VWN:    0.19000
                       LYP:    0.81000
                     Becke:    0.72000
                    Slater:    0.80000


 ***********************************************
 ***** DIIS acceleration of SCF iterations *****
 ***********************************************

 C1-DIIS algorithm; max error vectors =    8

 Automatic occupation of symmetries with  32 electrons.

 Iter     Total energy    Error norm  Delta(E)    SCF occupation
 -----------------------------------------------------------------------------

---> (Re)generating AOTWOINT


     ************************************************************************
     ************************** Output from HERINT **************************
     ************************************************************************


***  INFO  GETGAB: GABSO--- not found on AOGABINT. Regenerating.

 Threshold for neglecting two-electron integrals:  1.00D-12
 HERMIT - Number of two-electron integrals written:     2188342 ( 51.1% )
 HERMIT - Megabytes written:                             25.132

 2-el. screening, shell pairs skipped           4
  Total CPU  time used in TWOINT:   0.86 seconds
  Total wall time used in TWOINT:   0.86 seconds
  Time used in TWOINT     is       0.88 seconds
      K-S energy, electrons, error :    -23.542999466692  31.9999962648   -3.74D-06
@  1  -228.024384261       4.48D+00  -2.28D+02    13   3
      Virial theorem: -V/T =      2.001860
@    MULPOP   C1      0.37; C2      0.93; O3     -0.80; O7     -0.36; H4     -0.13; H5  _1 -0.09; H5  _2 -0.09; H8      0.17; 
   1  Level shift: doubly occupied orbital energies shifted by -2.00D-01
 -----------------------------------------------------------------------------
      K-S energy, electrons, error :    -23.753959447735  31.9999981779   -1.82D-06
@  2  -228.129553986       4.21D+00  -1.05D-01    13   3
      Virial theorem: -V/T =      2.003118
@    MULPOP   C1     -0.43; C2     -1.41; O3      1.13; O7      0.01; H4      0.19; H5  _1  0.18; H5  _2  0.18; H8      0.16; 
   2  Level shift: doubly occupied orbital energies shifted by -2.00D-01
 -----------------------------------------------------------------------------
      K-S energy, electrons, error :    -23.895165033522  31.9999982496   -1.75D-06
@  3  -228.935067674       1.03D+00  -8.06D-01    13   3
      Virial theorem: -V/T =      2.000833
@    MULPOP   C1     -0.10; C2      0.18; O3     -0.39; O7     -0.05; H4      0.07; H5  _1  0.09; H5  _2  0.09; H8      0.12; 
   3  Level shift: doubly occupied orbital energies shifted by -5.00D-02
 -----------------------------------------------------------------------------
      K-S energy, electrons, error :    -23.736915197626  31.9999977953   -2.20D-06
@  4  -228.966455194       5.36D-01  -3.14D-02    13   3
      Virial theorem: -V/T =      2.006806
@    MULPOP   C1      0.13; C2      0.18; O3     -0.22; O7     -0.28; H4      0.01; H5  _1  0.01; H5  _2  0.01; H8      0.16; 
   4  Level shift: doubly occupied orbital energies shifted by -5.00D-02
 -----------------------------------------------------------------------------
      K-S energy, electrons, error :    -23.750151981577  31.9999981072   -1.89D-06
@  5  -228.980099524       1.63D-01  -1.36D-02    13   3
      Virial theorem: -V/T =      2.006516
@    MULPOP   C1      0.02; C2      0.10; O3     -0.27; O7     -0.14; H4      0.04; H5  _1  0.05; H5  _2  0.05; H8      0.14; 
   5  Level shift: doubly occupied orbital energies shifted by -2.50D-02
 -----------------------------------------------------------------------------
      K-S energy, electrons, error :    -23.779596733247  31.9999980552   -1.94D-06
@  6  -228.981221935       4.08D-02  -1.12D-03    13   3
      Virial theorem: -V/T =      2.005385
@    MULPOP   C1      0.00; C2      0.11; O3     -0.25; O7     -0.18; H4      0.05; H5  _1  0.06; H5  _2  0.06; H8      0.16; 
   6  Level shift: doubly occupied orbital energies shifted by -1.25D-02
 -----------------------------------------------------------------------------
      K-S energy, electrons, error :    -23.769422284560  31.9999980544   -1.95D-06
@  7  -228.981304737       6.62D-03  -8.28D-05    13   3
      Virial theorem: -V/T =      2.005758
@    MULPOP   C1      0.01; C2      0.10; O3     -0.24; O7     -0.17; H4      0.05; H5  _1  0.05; H5  _2  0.05; H8      0.15; 
 -----------------------------------------------------------------------------
      K-S energy, electrons, error :    -23.770120813313  31.9999980550   -1.95D-06
@  8  -228.981306912       2.09D-03  -2.18D-06    13   3
      Virial theorem: -V/T =      2.005736
@    MULPOP   C1      0.01; C2      0.10; O3     -0.24; O7     -0.18; H4      0.05; H5  _1  0.05; H5  _2  0.05; H8      0.15; 
 -----------------------------------------------------------------------------
      K-S energy, electrons, error :    -23.770254121495  31.9999980548   -1.95D-06
@  9  -228.981307170       3.60D-04  -2.57D-07    13   3
      Virial theorem: -V/T =      2.005730
@    MULPOP   C1      0.01; C2      0.10; O3     -0.24; O7     -0.18; H4      0.05; H5  _1  0.05; H5  _2  0.05; H8      0.15; 
 -----------------------------------------------------------------------------
      K-S energy, electrons, error :    -23.770269999163  31.9999980549   -1.95D-06
@ 10  -228.981307177       4.19D-05  -7.27D-09    13   3
      Virial theorem: -V/T =      2.005730
@    MULPOP   C1      0.01; C2      0.10; O3     -0.24; O7     -0.18; H4      0.05; H5  _1  0.05; H5  _2  0.05; H8      0.15; 
 -----------------------------------------------------------------------------
      K-S energy, electrons, error :    -23.770270967835  31.9999980549   -1.95D-06
@ 11  -228.981307177       7.23D-06  -9.87D-11    13   3

@ *** DIIS converged in  11 iterations !
@     Converged SCF energy, gradient:   -228.981307177219    7.23D-06
    - total time used in SIRFCK :              1.36 seconds


 *** SCF orbital energy analysis ***

 Only the 20 lowest virtual orbital energies printed in each symmetry.

 Number of electrons        :   32
 Closed shell orbitals      :   13    3

 Sym       Kohn-Sham orbital energies

1 A'    -19.18237074   -19.12560065   -10.31598096   -10.20045503    -1.10103885
         -1.00981316    -0.75532504    -0.60444771    -0.48493100    -0.47201615
         -0.40781941    -0.38924586    -0.27072553     0.05424474     0.08354710
          0.12800198     0.20800452     0.28178516     0.30629766     0.45938643
          0.50279149     0.53173206     0.56472651     0.61675397     0.64850666
          0.66120158     0.77265738     0.86076696     0.94303273     1.02645945
          1.07131568     1.17096996     1.29871133

2 A"     -0.46395084    -0.38730216    -0.31438830     0.01206811     0.13738931
          0.43695297     0.51849156     0.62262275     0.90067484     0.94694957
          1.08693398     1.15593510     1.30635836     1.39335901     1.43230654
          1.62653411     1.82036726     2.15546452     2.41324340     2.62121486
          2.84383372     2.91837886     3.14844402

    E(LUMO) :     0.01206811 au (symmetry 2)
  - E(HOMO) :    -0.27072553 au (symmetry 1)
  ------------------------------------------
    gap     :     0.28279364 au

 --- Writing SIRIFC interface file

--------------------------------------------------------------------------------


     .-----------------------------------------------.
     | DFT KT IPs [a.u. & eV] from Koopmans' theorem |
     `-----------------------------------------------'


     DFT KT symmetry 1 ( A' ) in point group Cs  -- 13 principal poles with pole strength 1

   ============  ============  ============  ============  ============
      19.182371     19.125601     10.315981     10.200455      1.101039
     521.978860    520.434067    280.712121    277.568501     29.960791
   ============  ============  ============  ============  ============

   ============  ============  ============  ============  ============
       1.009813      0.755325      0.604448      0.484931      0.472016
      27.478414     20.553440     16.447859     13.195644     12.844213
   ============  ============  ============  ============  ============

   ============  ============  ============
       0.407819      0.389246      0.270726
      11.097331     10.591919      7.366816
   ============  ============  ============

     DFT KT symmetry 2 ( A" ) in point group Cs  -- 3 principal poles with pole strength 1

   ============  ============  ============
       0.463951      0.387302      0.314388
      12.624745     10.539028      8.554941
   ============  ============  ============

@ Summary of DFT KT ionization potentials [eV]:

@ Symmetry 1 (A' ) :   521.979     520.434     280.712     277.569      29.961
@                       27.478      20.553      16.448      13.196      12.844
@                       11.097      10.592       7.367

@ Symmetry 2 (A" ) :    12.625      10.539       8.555

  === End of DFT KT output ===
--------------------------------------------------------------------------------


 CPU and wall time for SCF :      13.376      13.379


                       .-----------------------------------.
                       | --- Final results from SIRIUS --- |
                       `-----------------------------------'


@    Spin multiplicity:           1
@    Spatial symmetry:            1 ( irrep  A'  in Cs  )
@    Total charge of molecule:    0

@    Final DFT energy:           -228.981307177219                 
@    Nuclear repulsion:           120.728113196986
@    Electronic energy:          -349.709420374205

@    Final gradient norm:           0.000007227507

 
     Date and time (Linux)  : Thu May  7 17:36:26 2026
     Host name              : debian                                  

File label for MO orbitals:   7May26   FOCKDIIS

 (Only coefficients > 0.0100 are printed.)

 Molecular orbitals for symmetry species 1  (A' )
 ------------------------------------------------

    Orbital         4        5        6        7        8        9       10
   1 C1  :1s     1.0064  -0.0003  -0.0019  -0.0174   0.0068  -0.0039   0.0021
   2 C1  :1s     0.0350   0.0713   0.0177   0.6992  -0.3195   0.0646  -0.0843
   3 C1  :1s    -0.0361  -0.0505  -0.0036  -0.2487   0.0856   0.0070   0.0098
   4 C1  :2px    0.0008  -0.0410  -0.0103  -0.0920  -0.1890   0.2875  -0.2923
   5 C1  :2py   -0.0003  -0.0014   0.0205  -0.0086  -0.0485  -0.2476   0.0577
   6 C1  :2px    0.0021   0.0256   0.0010   0.0557   0.0435  -0.0926   0.0353
   7 C1  :2py   -0.0000   0.0018  -0.0065  -0.0007   0.0114   0.0296  -0.0352
  10 C1  :3d2+  -0.0007   0.0069   0.0017   0.0080   0.0110  -0.0095   0.0092
  11 C2  :1s    -0.0011  -0.0130  -0.0052  -0.0047   0.0061  -0.0098  -0.0045
  12 C2  :1s    -0.0012   0.4613   0.2128   0.3128   0.4319  -0.4210  -0.1084
  13 C2  :1s     0.0057  -0.1613  -0.0788  -0.0343  -0.1368   0.1364   0.0515
  14 C2  :2px   -0.0007  -0.1501  -0.0720   0.2826  -0.0715  -0.1758   0.4761
  15 C2  :2py    0.0000  -0.0193   0.3504  -0.1038  -0.2909  -0.3191   0.0616
  16 C2  :2px    0.0031   0.0792   0.0329  -0.0402   0.0267  -0.0168  -0.1447
  17 C2  :2py    0.0004   0.0073  -0.1388   0.0274   0.0806   0.1528  -0.0084
  18 C2  :3d2-   0.0003   0.0048  -0.0409  -0.0015   0.0062  -0.0085  -0.0090
  19 C2  :3d0    0.0005  -0.0190  -0.0061  -0.0071  -0.0037  -0.0056   0.0048
  20 C2  :3d2+  -0.0011  -0.0145  -0.0044   0.0100  -0.0243  -0.0114  -0.0259
  22 O3  :1s    -0.0004   0.4103   0.6842  -0.1766  -0.1324   0.3731   0.1846
  23 O3  :1s     0.0002  -0.0550  -0.0811   0.0095  -0.0005   0.0593   0.0568
  24 O3  :2px   -0.0002   0.0589   0.1087   0.0444  -0.0046  -0.3690   0.1158
  25 O3  :2py    0.0000  -0.1299  -0.1549   0.0221  -0.0817   0.2997   0.3663
  26 O3  :2px   -0.0003  -0.0245  -0.0361  -0.0111   0.0051   0.0269  -0.0036
  27 O3  :2py   -0.0003   0.0352   0.0544  -0.0128   0.0025  -0.0105  -0.0234
  28 O3  :3d2-   0.0001  -0.0063  -0.0100  -0.0015  -0.0003   0.0150   0.0005
  30 O3  :3d2+  -0.0002  -0.0066  -0.0027   0.0033  -0.0055  -0.0008   0.0134
  32 O7  :1s    -0.0007   0.6669  -0.5331  -0.1195  -0.1043   0.0975   0.2412
  33 O7  :1s     0.0005  -0.0850   0.0634   0.0078   0.0125   0.0236   0.0932
  34 O7  :2px   -0.0002  -0.0266   0.0364   0.1825   0.5280   0.2935   0.1918
  35 O7  :2py   -0.0002   0.1497  -0.0617   0.0386   0.2921   0.0120  -0.5053
  36 O7  :2px    0.0008   0.0255  -0.0278  -0.0475  -0.1084  -0.0213  -0.0146
  37 O7  :2py    0.0002  -0.0395   0.0289   0.0012  -0.0300  -0.0183   0.0218
  38 O7  :3d2-  -0.0001   0.0035  -0.0017   0.0065   0.0123   0.0053   0.0078
  40 O7  :3d2+  -0.0000  -0.0044  -0.0031  -0.0014  -0.0140  -0.0040   0.0130
  41 H4  :1s    -0.0023   0.0150   0.0142   0.2382  -0.2284  -0.0402  -0.1018
  42 H4  :1s     0.0034  -0.0099  -0.0061  -0.1078   0.0873   0.0396   0.0596
  44 H4  :2py    0.0018  -0.0015  -0.0023  -0.0183   0.0126  -0.0042   0.0057
  45 H5  :1s    -0.0022   0.0158  -0.0007   0.2523  -0.1694   0.2229  -0.1511
  46 H5  :1s     0.0034  -0.0074  -0.0005  -0.1138   0.0624  -0.0659   0.0542
  48 H5  :2py   -0.0010  -0.0000   0.0002   0.0103  -0.0072   0.0018  -0.0023
  49 H5  :2pz    0.0016  -0.0016   0.0004  -0.0164   0.0096  -0.0097   0.0061
  50 H8  :1s     0.0006   0.2248  -0.1935  -0.1737  -0.4614  -0.2197  -0.1526
  51 H8  :1s     0.0002  -0.1082   0.0933   0.0792   0.1621   0.0845   0.0809
  52 H8  :2px    0.0002   0.0284  -0.0227  -0.0147  -0.0294  -0.0083  -0.0102
  53 H8  :2py    0.0000  -0.0013   0.0042   0.0030   0.0142   0.0041  -0.0185

    Orbital        11       12       13       14       15       16       17
   1 C1  :1s    -0.0008   0.0002   0.0034   0.0303   0.0379   0.0059   0.0600
   2 C1  :1s     0.0066  -0.0463  -0.0942  -0.2296  -0.2446  -0.0426  -0.0372
   3 C1  :1s     0.0032  -0.0958  -0.1174  -1.0646  -1.2698  -0.2353  -1.5460
   4 C1  :2px    0.1875   0.3423   0.2547  -0.0076  -0.2526  -0.1730   0.3631
   5 C1  :2py    0.6113  -0.0153  -0.1189   0.0117   0.1305  -0.5413  -0.0942
   6 C1  :2px   -0.0446  -0.0360  -0.0108  -0.1106  -0.3736  -0.2340   1.7101
   7 C1  :2py   -0.1503   0.0221   0.0002  -0.0688   0.3304  -0.9273  -0.1148
   8 C1  :3d2-   0.0129  -0.0075  -0.0010   0.0122  -0.0122   0.0120  -0.0030
  10 C1  :3d2+  -0.0075  -0.0121  -0.0019   0.0009   0.0043  -0.0053   0.0348
  11 C2  :1s    -0.0025  -0.0027  -0.0031  -0.0054  -0.0116   0.0104  -0.0260
  12 C2  :1s    -0.1044  -0.0620  -0.0662   0.0411  -0.0378   0.0166   0.5267
  13 C2  :1s     0.0361   0.0236   0.0298   0.0279   0.1762  -0.1854   2.5119
  14 C2  :2px   -0.0886  -0.3306  -0.1010  -0.0070   0.0274  -0.0382   0.3500
  15 C2  :2py   -0.1359   0.3295   0.0080  -0.0861   0.0654  -0.0899  -0.2101
  16 C2  :2px    0.0010   0.1803   0.1039   0.1642  -0.3339  -0.0613   0.9562
  17 C2  :2py    0.0871  -0.2361   0.0619   0.1784  -0.1277   0.0629  -0.1653
  18 C2  :3d2-   0.0315  -0.0188   0.0371  -0.0135   0.0149  -0.0310  -0.0160
  19 C2  :3d0   -0.0048  -0.0026  -0.0038   0.0173   0.0038  -0.0115   0.0131
  20 C2  :3d2+  -0.0086  -0.0263  -0.0539  -0.0116   0.0045   0.0023   0.0082
  22 O3  :1s     0.0622  -0.1490   0.0189  -0.0810  -0.0173   0.0287  -0.0777
  23 O3  :1s     0.0037  -0.0175  -0.0130  -0.0889  -0.1105   0.0136  -0.1612
  24 O3  :2px   -0.0945   0.2606   0.7289   0.0844  -0.1546   0.0229  -0.1298
  25 O3  :2py    0.1462  -0.4419   0.4303   0.0473  -0.0123  -0.0934   0.1485
  26 O3  :2px    0.0068  -0.0064   0.0096  -0.0289   0.0015   0.0216  -0.1788
  27 O3  :2py   -0.0075   0.0275   0.0102   0.0204   0.0528  -0.0101   0.0736
  28 O3  :3d2-   0.0053  -0.0112  -0.0084   0.0049   0.0012   0.0022  -0.0009
  30 O3  :3d2+  -0.0002  -0.0089   0.0132   0.0025   0.0005  -0.0021   0.0020
  32 O7  :1s     0.0758   0.2316   0.0389  -0.2651   0.1090  -0.0328  -0.0935
  33 O7  :1s     0.0332   0.0857   0.0741  -0.3883   0.1309   0.0969  -0.2896
  34 O7  :2px    0.1841   0.3473  -0.0044   0.2999  -0.2643  -0.1359  -0.2060
  35 O7  :2py    0.1274  -0.4215   0.3604  -0.0705   0.0324  -0.0402  -0.2426
  36 O7  :2px   -0.0212  -0.0580  -0.0144   0.1918  -0.1443  -0.0534  -0.2278
  37 O7  :2py   -0.0154  -0.0044   0.0127   0.0252  -0.0858   0.0012  -0.1380
  38 O7  :3d2-   0.0025   0.0058  -0.0047   0.0057  -0.0074  -0.0006   0.0143
  41 H4  :1s     0.6365   0.1075  -0.0456   0.1096  -0.0355   0.2342  -0.1615
  42 H4  :1s    -0.1495  -0.0320   0.0685   0.5057   0.4050   1.9077   0.0264
  43 H4  :2px   -0.0084   0.0038  -0.0003   0.0042  -0.0031   0.0011   0.0175
  44 H4  :2py   -0.0137  -0.0064   0.0007   0.0017   0.0003   0.0018  -0.0099
  45 H5  :1s    -0.2558   0.0979   0.1077   0.0074   0.1124  -0.0824  -0.1472
  46 H5  :1s     0.0645  -0.0027  -0.0137   0.4843   0.9731  -0.6741  -0.1524
  47 H5  :2px    0.0072   0.0053   0.0060  -0.0025  -0.0012  -0.0033   0.0101
  50 H8  :1s    -0.1489  -0.3487   0.0048   0.2747  -0.1706   0.0319  -0.1117
  51 H8  :1s     0.0371   0.1138  -0.0835   0.9829  -0.7299  -0.2788  -0.0562
  52 H8  :2px   -0.0052  -0.0152   0.0021  -0.0074   0.0091  -0.0034  -0.0002
  53 H8  :2py    0.0065  -0.0048   0.0043  -0.0053   0.0042  -0.0022  -0.0172

    Orbital        18       19       20       21       22       23
   1 C1  :1s    -0.0539   0.0184  -0.0723  -0.0978  -0.0688   0.0068
   2 C1  :1s    -0.1030   0.0944  -0.3500  -0.5901  -0.4693  -0.0860
   3 C1  :1s     1.3948  -0.4383   1.4379   0.5299  -0.1176  -0.8554
   4 C1  :2px    0.2440  -0.1079   0.4768   0.9103   0.5306   0.3655
   5 C1  :2py   -0.0782   0.1260   0.1619  -0.3482   0.2298  -0.1072
   6 C1  :2px   -1.1802   0.1436  -1.2033  -1.3957  -0.6786  -0.0862
   7 C1  :2py    0.2423   0.6260  -0.8271   1.3947  -1.1317  -0.1312
   8 C1  :3d2-   0.0088   0.0837   0.0302  -0.0348   0.0204  -0.0248
   9 C1  :3d0    0.0215  -0.0280  -0.1540   0.0589  -0.0431  -0.0434
  10 C1  :3d2+  -0.0025  -0.0219   0.0220   0.0972  -0.0477  -0.0606
  11 C2  :1s    -0.0590   0.0240  -0.0724  -0.0513   0.1926  -0.0019
  12 C2  :1s    -0.0156   0.1553  -0.3300  -0.1241   1.0250   0.0833
  13 C2  :1s     0.6659  -0.3726  -0.0321  -0.6582  -1.7753   0.1641
  14 C2  :2px   -0.6526  -0.2727   0.6668   0.4191  -0.3368  -0.0528
  15 C2  :2py   -0.2453  -0.5200   0.4208   0.1765  -0.7412   0.6241
  16 C2  :2px   -1.5716   0.5216  -2.0007  -0.3145   1.5274   1.1363
  17 C2  :2py    0.1615  -1.7321   0.2039  -1.4372   2.1239  -0.8858
  18 C2  :3d2-  -0.0087  -0.0137  -0.0040   0.0336  -0.0935   0.2127
  19 C2  :3d0    0.0664   0.0090   0.0093   0.1250   0.0863   0.0636
  20 C2  :3d2+  -0.0053   0.0196  -0.1166  -0.1576  -0.0110   0.0044
  21 O3  :1s     0.0251  -0.0400   0.0207  -0.0295  -0.0007  -0.0220
  22 O3  :1s    -0.2060   0.1849  -0.0210   0.0093  -0.0065  -0.1129
  23 O3  :1s    -0.8941   1.2851  -0.6838   0.8170  -0.0951   0.5899
  24 O3  :2px    0.0906   0.2353   0.0350  -0.2160  -0.2018  -0.2325
  25 O3  :2py    0.2828   0.0393  -0.0562  -0.0294  -0.1342   0.1357
  26 O3  :2px    0.0670   0.3144  -0.0079   0.2179  -0.1243   0.0113
  27 O3  :2py    0.4343  -0.2793   0.2231  -0.2115  -0.1921  -0.1449
  28 O3  :3d2-   0.0138  -0.0104   0.0002  -0.0130   0.0055  -0.0372
  29 O3  :3d0    0.0102  -0.0063   0.0104  -0.0061   0.0017  -0.0201
  30 O3  :3d2+  -0.0063  -0.0187   0.0158   0.0080  -0.0066  -0.0031
  31 O7  :1s     0.0068   0.0114  -0.0061   0.0145  -0.0734   0.0417
  32 O7  :1s    -0.1947  -0.2240  -0.0659  -0.0102  -0.2644   0.2587
  33 O7  :1s    -0.4834  -0.6879  -0.0594  -0.4037   1.3548  -0.4898
  34 O7  :2px   -0.2058  -0.2386  -0.0056   0.1487  -0.1427  -0.3970
  35 O7  :2py   -0.3948  -0.1276   0.0622   0.0722  -0.2065   0.4778
  36 O7  :2px   -0.0686  -0.2797   0.2896  -0.2907   0.1826   0.0441
  37 O7  :2py   -0.3878  -0.2059  -0.1309  -0.0550   0.5335  -0.2680
  38 O7  :3d2-   0.0016   0.0082  -0.0323  -0.0107   0.0515   0.0041
  39 O7  :3d0    0.0098  -0.0061   0.0027   0.0007  -0.0519   0.0566
  40 O7  :3d2+  -0.0206   0.0075   0.0460   0.0404   0.0010  -0.0531
  41 H4  :1s     0.0391   0.4750   0.8858  -0.4671   0.6849   0.5557
  42 H4  :1s    -0.0718  -0.8283  -0.4656   0.2512  -0.2561  -0.2603
  43 H4  :2px    0.0014   0.0394   0.0297   0.0529  -0.0508   0.0076
  44 H4  :2py   -0.0040   0.0103   0.0059  -0.0288   0.0397   0.0222
  45 H5  :1s     0.1114  -0.1324  -0.5194   0.5884   0.1059   0.0355
  46 H5  :1s    -0.0985   0.4085   0.3823  -0.1669  -0.1528  -0.0799
  47 H5  :2px   -0.0068  -0.0294   0.0104  -0.0029   0.0390  -0.0192
  48 H5  :2py    0.0061  -0.0043  -0.0346   0.0432  -0.0388  -0.0360
  49 H5  :2pz   -0.0042  -0.0025  -0.0513   0.0309  -0.0022  -0.0267
  50 H8  :1s    -0.2832   0.1175   0.8439   0.4961   0.1940  -1.4579
  51 H8  :1s    -0.3308  -0.2688  -1.1676  -0.6693   0.2923   1.7220
  52 H8  :2px    0.0162  -0.0047  -0.0130  -0.0800  -0.0668   0.1993
  53 H8  :2py   -0.0081  -0.0217   0.0454  -0.0125  -0.1074  -0.0454

 Molecular orbitals for symmetry species 2  (A" )
 ------------------------------------------------

    Orbital         1        2        3        4        5        6        7
   1 C1  :2pz    0.4217   0.5128   0.0373   0.0471  -0.6037  -0.2101   0.3028
   2 C1  :2pz   -0.1064  -0.0800  -0.0424   0.1957  -0.9829   0.8892  -1.2874
   3 C1  :3d1-  -0.0080  -0.0150  -0.0031   0.0153   0.0004   0.1508  -0.0973
   4 C1  :3d1+  -0.0092   0.0123   0.0058  -0.0455  -0.0115  -0.0109   0.0292
   5 C2  :2pz    0.4719  -0.2601  -0.2092   0.8458   0.2473  -0.8744  -1.0857
   6 C2  :2pz   -0.0564   0.0092   0.0314   0.0924   0.2651   0.7469   2.0193
   7 C2  :3d1-  -0.0030  -0.0007  -0.0550  -0.0181  -0.0087   0.0336  -0.0292
   8 C2  :3d1+  -0.0057   0.0352   0.0098   0.0236  -0.0092   0.0422   0.0057
   9 O3  :2pz    0.3205  -0.2977  -0.6472  -0.5621  -0.1319  -0.0208  -0.1604
  10 O3  :2pz   -0.0305   0.0142  -0.0097  -0.1392  -0.0819   0.0093  -0.1288
  11 O3  :3d1-  -0.0132   0.0094   0.0144  -0.0060  -0.0043   0.0205   0.0135
  12 O3  :3d1+   0.0076  -0.0048  -0.0088   0.0055   0.0001  -0.0053  -0.0156
  13 O7  :2pz    0.3906  -0.4564   0.6666  -0.3338  -0.1818  -0.0082  -0.2410
  14 O7  :2pz   -0.0139  -0.0000   0.0391  -0.0825  -0.0421  -0.0346  -0.0562
  15 O7  :3d1-   0.0133  -0.0122   0.0088   0.0097   0.0028  -0.0148  -0.0070
  16 O7  :3d1+   0.0009   0.0022  -0.0055   0.0111   0.0065  -0.0011  -0.0085
  17 H4  :2pz    0.0099   0.0110   0.0008  -0.0024  -0.0098   0.0676  -0.0550
  18 H5  :1s     0.3093   0.4313   0.0599  -0.2480   0.0901  -1.0247   0.6195
  19 H5  :1s    -0.0847  -0.1115   0.0297  -0.2795   1.5673   0.6829  -0.3459
  20 H5  :2px   -0.0057  -0.0051  -0.0040  -0.0066  -0.0044  -0.0221  -0.0562
  21 H5  :2py    0.0086   0.0098   0.0011   0.0011  -0.0029   0.0423  -0.0250
  23 H8  :2pz    0.0124  -0.0165   0.0199  -0.0169  -0.0090   0.0062   0.0360

    Orbital         8        9       10       11       12       13
   1 C1  :2pz   -1.3003  -0.2759   0.1557  -0.1302   0.0067   0.0439
   2 C1  :2pz    2.5769   0.5488  -0.5427   0.5129  -0.3736   0.2620
   3 C1  :3d1-  -0.2071  -0.2224   0.0666  -0.0378   0.1595  -0.0879
   4 C1  :3d1+   0.1812  -0.4170   0.0376  -0.1516  -0.0746  -0.1478
   5 C2  :2pz   -0.1166  -0.0796  -0.0435   0.1520   0.0100   0.1193
   6 C2  :2pz   -0.0347  -0.1268   0.3081  -1.1531   0.2958  -0.2201
   7 C2  :3d1-   0.0147  -0.0907  -0.1197  -0.0959   0.8459  -0.2123
   8 C2  :3d1+  -0.1071   0.3673   0.0085   0.3565   0.1862  -0.5513
   9 O3  :2pz   -0.1218   0.4106  -0.7411  -1.0084  -0.0635  -0.0882
  10 O3  :2pz    0.0755  -0.2857   0.9022   1.7278  -0.3439   0.0992
  11 O3  :3d1-   0.0036   0.0200   0.0102   0.0506  -0.0252  -0.0323
  12 O3  :3d1+   0.0048   0.0112  -0.0021  -0.0133   0.0666  -0.0368
  13 O7  :2pz    0.0590   0.3677   1.1397  -0.6177   0.2423   0.0664
  14 O7  :2pz   -0.0705  -0.3251  -1.5017   1.0082  -0.2151  -0.5284
  15 O7  :3d1-   0.0036  -0.0212   0.0245  -0.0391  -0.0676   0.0977
  16 O7  :3d1+  -0.0002   0.0216   0.0118  -0.0213  -0.1070  -0.1056
  17 H4  :2pz   -0.0261  -0.1883  -0.0115  -0.0128  -0.0836   0.0084
  18 H5  :1s     0.4509  -0.0197   0.0485  -0.0341   0.3132  -0.2201
  19 H5  :1s    -1.8557  -0.1998   0.2837  -0.0846  -0.0456   0.1127
  20 H5  :2px    0.0866  -0.2091   0.0395  -0.0137   0.0547  -0.2849
  21 H5  :2py   -0.1103  -0.1100   0.0163  -0.0489  -0.0322   0.0271
  22 H5  :2pz    0.1398   0.0373  -0.0157  -0.0074  -0.0211   0.1199
  23 H8  :2pz    0.0061  -0.1031  -0.0734   0.1498   0.3954   0.7051

  Total CPU  time used in SIRIUS :  13.40 seconds
  Total wall time used in SIRIUS :  13.40 seconds

 
     Date and time (Linux)  : Thu May  7 17:36:26 2026
     Host name              : debian                                  


                     .---------------------------------------.
                     | End of Wave Function Section (SIRIUS) |
                     `---------------------------------------'

  Total CPU  time used in DALTON:  13.50 seconds
  Total wall time used in DALTON:  13.50 seconds

 
     Date and time (Linux)  : Thu May  7 17:36:26 2026
     Host name              : debian                                  
