
    -----------------------------------------------------------------------
          Psi4: An Open-Source Ab Initio Electronic Structure Package
                               Psi4 1.10 release

                         Git: Rev {} zzzzzzz 


    D. G. A. Smith, L. A. Burns, A. C. Simmonett, R. M. Parrish,
    M. C. Schieber, R. Galvelis, P. Kraus, H. Kruse, R. Di Remigio,
    A. Alenaizan, A. M. James, S. Lehtola, J. P. Misiewicz, M. Scheurer,
    R. A. Shaw, J. B. Schriber, Y. Xie, Z. L. Glick, D. A. Sirianni,
    J. S. O'Brien, J. M. Waldrop, A. Kumar, E. G. Hohenstein,
    B. P. Pritchard, B. R. Brooks, H. F. Schaefer III, A. Yu. Sokolov,
    K. Patkowski, A. E. DePrince III, U. Bozkaya, R. A. King,
    F. A. Evangelista, J. M. Turney, T. D. Crawford, C. D. Sherrill,
    J. Chem. Phys. 152(18) 184108 (2020). https://doi.org/10.1063/5.0006002

                            Additional Code Authors
    E. T. Seidl, C. L. Janssen, E. F. Valeev, M. L. Leininger,
    J. F. Gonthier, R. M. Richard, H. R. McAlexander, M. Saitow, X. Wang,
    P. Verma, M. H. Lechner, A. Jiang, S. Behnle, A. G. Heide,
    M. F. Herbst, D. L. Poole, T. Győri, E. C. Mitchell, J. P. Pederson,
    and A. M. Wallace

             Previous Authors, Complete List of Code Contributors,
                       and Citations for Specific Modules
    https://github.com/psi4/psi4/blob/master/codemeta.json
    https://github.com/psi4/psi4/graphs/contributors
    https://psicode.org/psi4manual/master/introduction.html#citing-psifour

    -----------------------------------------------------------------------


    Psi4 started on: Tuesday, 05 May 2026 08:46AM

    Process ID: 7169
    Host:       debian
    PSIDATADIR: /home/vdwv/DIPLOM_ITMO/CALCULATIONS_AND_SOFTS/softwares/Psi4_Shenanigans/psi4conda/share/psi4
    Memory:     500.0 MiB
    Threads:    1
    Addons:     adcc, a̶m̶b̶i̶t̶, b̶s̶e̶, c̶c̶t̶3̶, c̶f̶o̶u̶r̶, c̶h̶e̶m̶p̶s̶2̶, c̶p̶p̶e̶, ddx, dftd3, dftd4,
                dkh, ecpint, einsums, f̶o̶r̶t̶e̶, g̶a̶u̶x̶c̶, gcp, g̶d̶m̶a̶, geometric,
                g̶p̶u̶_̶d̶f̶c̶c̶, i̶n̶t̶e̶g̶r̶a̶t̶o̶r̶x̶x̶, i̶p̶i̶, libefp, m̶d̶i̶, m̶p̶2̶d̶,
                m̶r̶c̶c̶, ooo, o̶p̶e̶n̶f̶e̶r̶m̶i̶o̶n̶p̶s̶i̶4̶, pcmsolver, p̶s̶i̶4̶f̶o̶c̶k̶c̶i̶,
                p̶s̶i̶x̶a̶s̶, r̶e̶s̶p̶, s̶i̶m̶i̶n̶t̶, s̶n̶s̶m̶p̶2̶, v̶2̶r̶d̶m̶_̶c̶a̶s̶s̶c̶f̶

  ==> Input File <==

--------------------------------------------------------------------------
#! Sample HF/cc-pVTZ CCl2O computation

memory 600 mb

molecule ccl2o {
  O1   0.000  0.000  1.642
  C2   0.000  0.000  0.489
  Cl3  0.000  1.444 -0.473
  Cl4  0.000 -1.444 -0.473
  units angstrom
}


set basis cc-pVTZ
energy('scf')

--------------------------------------------------------------------------

  Memory set to 572.205 MiB by Python driver.

Scratch directory: /tmp/
   => Libint2 <=

    Primary   basis highest AM E, G, H:  6, 6, 3
    Auxiliary basis highest AM E, G, H:  7, 7, 4
    Onebody   basis highest AM E, G, H:  -, -, -
    Solid Harmonics ordering:            Gaussian

*** tstart() called on debian
*** at Tue May  5 08:46:03 2026

   => Loading Basis Set <=

    Name: CC-PVTZ
    Role: ORBITAL
    Keyword: BASIS
    atoms 1   entry O          line   262 file /home/vdwv/DIPLOM_ITMO/CALCULATIONS_AND_SOFTS/softwares/Psi4_Shenanigans/psi4conda/share/psi4/basis/cc-pvtz.gbs 
    atoms 2   entry C          line   186 file /home/vdwv/DIPLOM_ITMO/CALCULATIONS_AND_SOFTS/softwares/Psi4_Shenanigans/psi4conda/share/psi4/basis/cc-pvtz.gbs 
    atoms 3-4 entry CL         line   847 file /home/vdwv/DIPLOM_ITMO/CALCULATIONS_AND_SOFTS/softwares/Psi4_Shenanigans/psi4conda/share/psi4/basis/cc-pvtz.gbs 


         ---------------------------------------------------------
                                   SCF
               by Justin Turney, Rob Parrish, Andy Simmonett
                          and Daniel G. A. Smith
                              RHF Reference
                        1 Threads,    572 MiB Core
         ---------------------------------------------------------

  ==> Geometry <==

    Molecular point group: c2v
    Full point group: C2v

    Geometry (in Angstrom), charge = 0, multiplicity = 1:

       Center              X                  Y                   Z               Mass       
    ------------   -----------------  -----------------  -----------------  -----------------
         O            0.000000000000     0.000000000000     1.651689160078    15.994914619570
         C            0.000000000000     0.000000000000     0.498689160078    12.000000000000
         CL          -0.000000000000     1.444000000000    -0.463310839922    34.968852682000
         CL           0.000000000000    -1.444000000000    -0.463310839922    34.968852682000

  Running in c2v symmetry.

  Rotational constants: A =      0.27352  B =      0.11560  C =      0.08126 [cm^-1]
  Rotational constants: A =   8199.90986  B =   3465.54413  C =   2436.00888 [MHz]
  Nuclear repulsion =  193.405553136198876

  Charge       = 0
  Multiplicity = 1
  Electrons    = 48
  Nalpha       = 24
  Nbeta        = 24

  ==> Algorithm <==

  SCF Algorithm Type is DF.
  DIIS enabled.
  MOM disabled.
  Fractional occupation disabled.
  Guess Type is SAD.
  Energy threshold   = 1.00e-06
  Density threshold  = 1.00e-06
  Integral threshold = 1.00e-12

  ==> Primary Basis <==

  Basis Set: CC-PVTZ
    Blend: CC-PVTZ
    Number of shells: 44
    Number of basis functions: 128
    Number of Cartesian functions: 148
    Spherical Harmonics?: true
    Max angular momentum: 3

   => Loading Basis Set <=

    Name: (CC-PVTZ AUX)
    Role: JKFIT
    Keyword: DF_BASIS_SCF
    atoms 1   entry O          line   229 file /home/vdwv/DIPLOM_ITMO/CALCULATIONS_AND_SOFTS/softwares/Psi4_Shenanigans/psi4conda/share/psi4/basis/cc-pvtz-jkfit.gbs 
    atoms 2   entry C          line   125 file /home/vdwv/DIPLOM_ITMO/CALCULATIONS_AND_SOFTS/softwares/Psi4_Shenanigans/psi4conda/share/psi4/basis/cc-pvtz-jkfit.gbs 
    atoms 3-4 entry CL         line   689 file /home/vdwv/DIPLOM_ITMO/CALCULATIONS_AND_SOFTS/softwares/Psi4_Shenanigans/psi4conda/share/psi4/basis/cc-pvtz-jkfit.gbs 

  ==> Integral Setup <==

  DFHelper Memory: AOs need 0.053 GiB; user supplied 0.419 GiB. 
  SCF_SUBTYPE=INCORE selected. In-core MEM_DF algorithm will be used.
  Using in-core AOs.

  ==> MemDFJK: Density-Fitted J/K Matrices <==

    J tasked:                   Yes
    K tasked:                   Yes
    wK tasked:                   No
    OpenMP threads:               1
    Memory [MiB]:               429
    Algorithm:                 Core
    Schwarz Cutoff:           1E-12
    Mask sparsity (%):       0.0000
    Fitting Condition:        1E-10

   => Auxiliary Basis Set <=

  Basis Set: (CC-PVTZ AUX)
    Blend: CC-PVTZ-JKFIT
    Number of shells: 124
    Number of basis functions: 400
    Number of Cartesian functions: 482
    Spherical Harmonics?: true
    Max angular momentum: 4

  Minimum eigenvalue in the overlap matrix is 2.2908132775E-03.
  Reciprocal condition number of the overlap matrix is 4.9411094465E-04.
    Using symmetric orthogonalization.

  ==> Pre-Iterations <==

  SCF Guess: Superposition of Atomic Densities via on-the-fly atomic UHF (no occupation information).

   -------------------------
    Irrep   Nso     Nmo    
   -------------------------
     A1        49      49 
     A2        17      17 
     B1        25      25 
     B2        37      37 
   -------------------------
    Total     128     128
   -------------------------

  ==> Iterations <==

                           Total Energy        Delta E     RMS |[F,P]|

   @DF-RHF iter SAD: -1033.47521232501913   -1.03348e+03   0.00000e+00 
   @DF-RHF iter   1: -1030.91990151580126    2.55531e+00   1.78500e-02 ADIIS/DIIS
   @DF-RHF iter   2: -1031.36248359718866   -4.42582e-01   1.46166e-02 ADIIS/DIIS
   @DF-RHF iter   3: -1031.79284758733252   -4.30364e-01   1.83810e-03 ADIIS/DIIS
   @DF-RHF iter   4: -1031.80004559593863   -7.19801e-03   6.55205e-04 ADIIS/DIIS
   @DF-RHF iter   5: -1031.80120267094048   -1.15708e-03   2.46166e-04 ADIIS/DIIS
   @DF-RHF iter   6: -1031.80145635724125   -2.53686e-04   1.15771e-04 ADIIS/DIIS
   @DF-RHF iter   7: -1031.80154175403800   -8.53968e-05   3.25244e-05 DIIS
   @DF-RHF iter   8: -1031.80155128438446   -9.53035e-06   1.00141e-05 DIIS
   @DF-RHF iter   9: -1031.80155201708180   -7.32697e-07   2.73265e-06 DIIS
   @DF-RHF iter  10: -1031.80155206980453   -5.27227e-08   8.70500e-07 DIIS
  Energy and wave function converged.


  ==> Post-Iterations <==

    Orbital Energies [Eh]
    ---------------------

    Doubly Occupied:                                                      

       1B2  -104.884692     1A1  -104.884692     2A1   -20.619713  
       3A1   -11.467990     2B2   -10.610153     4A1   -10.610138  
       3B2    -8.076896     5A1    -8.076894     1A2    -8.074791  
       1B1    -8.074789     4B2    -8.074649     6A1    -8.074648  
       7A1    -1.502647     8A1    -1.202293     5B2    -1.140064  
       9A1    -0.809741     6B2    -0.714803    10A1    -0.705472  
       2B1    -0.657455    11A1    -0.529092     2A2    -0.499524  
       3B1    -0.498671     7B2    -0.493119     8B2    -0.474047  

    Virtual:                                                              

       4B1     0.110265    12A1     0.122517     9B2     0.242790  
      13A1     0.287119    10B2     0.358269    14A1     0.377683  
       5B1     0.416059    15A1     0.426978     3A2     0.479707  
      11B2     0.480408    16A1     0.480597     6B1     0.493817  
      17A1     0.532155    12B2     0.533510     4A2     0.561325  
       7B1     0.577998    13B2     0.630314    18A1     0.651783  
       5A2     0.675950    14B2     0.738985    19A1     0.764496  
       8B1     0.776675    20A1     0.854254     9B1     0.862716  
      15B2     0.889490    21A1     0.976504    16B2     1.022201  
      22A1     1.082854     6A2     1.117846    10B1     1.198561  
      17B2     1.239030    23A1     1.285537    24A1     1.402250  
      18B2     1.424078    25A1     1.761700     7A2     1.851352  
      26A1     1.869651    11B1     2.093192    12B1     2.126723  
      27A1     2.146548    19B2     2.150120     8A2     2.172246  
      20B2     2.185720    13B1     2.206876    28A1     2.218556  
       9A2     2.234782    21B2     2.237803    29A1     2.273209  
      14B1     2.282199    22B2     2.306310    10A2     2.345107  
      30A1     2.364003    15B1     2.366009    23B2     2.372559  
      11A2     2.384329    31A1     2.407450    24B2     2.418798  
      32A1     2.454437    25B2     2.498794    16B1     2.509448  
      17B1     2.540696    12A2     2.545034    33A1     2.552049  
      26B2     2.606112    34A1     2.630467    27B2     2.654530  
      18B1     2.738875    13A2     2.752382    35A1     2.789333  
      28B2     2.869305    36A1     3.072117    29B2     3.112566  
      19B1     3.230328    14A2     3.313084    37A1     3.360344  
      38A1     3.503389    20B1     3.570142    39A1     3.634173  
      30B2     3.644336    21B1     3.705060    15A2     3.720746  
      40A1     3.758869    31B2     4.083662    41A1     4.289290  
      32B2     4.379946    22B1     4.529473    33B2     4.730615  
      42A1     4.929766    43A1     5.481405    34B2     5.535732  
      23B1     5.572860    35B2     5.869597    16A2     5.988457  
      44A1     6.068476    24B1     6.687979    45A1     6.728172  
      17A2     6.823825    46A1     6.889179    36B2     7.007754  
      25B1     7.274837    37B2     7.395570    47A1     7.507887  
      48A1     8.212481    49A1    13.876194  

    Final Occupation by Irrep:
             A1    A2    B1    B2 
    DOCC [    11,    2,    3,    8 ]
    NA   [    11,    2,    3,    8 ]
    NB   [    11,    2,    3,    8 ]

  @DF-RHF Final Energy: -1031.80155206980453

   => Energetics <=

    Nuclear Repulsion Energy =            193.4055531361988756
    One-Electron Energy =               -1808.9002215371665443
    Two-Electron Energy =                 583.6931163311630826
    Total Energy =                      -1031.8015520698045293

Computation Completed


Properties will be evaluated at   0.000000,   0.000000,   0.000000 [a0]

Properties computed using the SCF density matrix


 Multipole Moments:

 ------------------------------------------------------------------------------------
     Multipole            Electronic (a.u.)      Nuclear  (a.u.)        Total (a.u.)
 ------------------------------------------------------------------------------------

 L = 1.  Multiply by 2.5417464519 to convert [e a0] to [Debye]
 Dipole X            :          0.0000000            0.0000000            0.0000000
 Dipole Y            :          0.0000000            0.0000000            0.0000000
 Dipole Z            :         -1.3901564            0.8561965           -0.5339599
 Magnitude           :                                                    0.5339599

 ------------------------------------------------------------------------------------

*** tstop() called on debian at Tue May  5 08:46:06 2026
Module time:
	user time   =       2.97 seconds =       0.05 minutes
	system time =       0.18 seconds =       0.00 minutes
	total time  =          3 seconds =       0.05 minutes
Total time:
	user time   =       2.97 seconds =       0.05 minutes
	system time =       0.18 seconds =       0.00 minutes
	total time  =          3 seconds =       0.05 minutes

    Psi4 stopped on: Tuesday, 05 May 2026 08:46AM
    Psi4 wall time for execution: 0:00:03.25

*** Psi4 exiting successfully. Buy a developer a beer!
