

     ************************************************************************
     *************** Dalton - An Electronic Structure Program ***************
     ************************************************************************

    This is output from DALTON release Dalton2025.0-dev (2025)
         ( Web site: http://daltonprogram.org )

   ----------------------------------------------------------------------------

    NOTE:
     
    Dalton is an experimental code for the evaluation of molecular
    properties using (MC)SCF, DFT, CI, and CC wave functions.
    The authors accept no responsibility for the performance of
    the code or for the correctness of the results.
     
    The code (in whole or part) is provided under a licence and
    is not to be reproduced for further distribution without
    the written permission of the authors or their representatives.
     
    See the home page "http://daltonprogram.org" for further information.
     
    If results obtained with this code are published,
    the appropriate citations would be both of:
     
       K. Aidas, C. Angeli, K. L. Bak, V. Bakken,
       R. Bast, L. Boman, O. Christiansen, R. Cimiraglia,
       S. Coriani, P. Dahle, E. K. Dalskov, U. Ekstroem,
       T. Enevoldsen, J. J. Eriksen, P. Ettenhuber, B. Fernandez,
       L. Ferrighi, H. Fliegl, L. Frediani, K. Hald, A. Halkier,
       C. Haettig, H. Heiberg, T. Helgaker, A. C. Hennum,
       H. Hettema, E. Hjertenaes, S. Hoest, I.-M. Hoeyvik,
       M. F. Iozzi, B. Jansik, H. J. Aa. Jensen, D. Jonsson,
       P. Joergensen, J. Kauczor, S. Kirpekar,
       T. Kjaergaard, W. Klopper, S. Knecht, R. Kobayashi, H. Koch,
       J. Kongsted, A. Krapp, K. Kristensen, A. Ligabue,
       O. B. Lutnaes, J. I. Melo, K. V. Mikkelsen, R. H. Myhre,
       C. Neiss, C. B. Nielsen, P. Norman, J. Olsen,
       J. M. H. Olsen, A. Osted, M. J. Packer, F. Pawlowski,
       T. B. Pedersen, P. F. Provasi, S. Reine, Z. Rinkevicius,
       T. A. Ruden, K. Ruud, V. Rybkin, P. Salek, C. C. M. Samson,
       A. Sanchez de Meras, T. Saue, S. P. A. Sauer,
       B. Schimmelpfennig, K. Sneskov, A. H. Steindal,
       K. O. Sylvester-Hvid, P. R. Taylor, A. M. Teale,
       E. I. Tellgren, D. P. Tew, A. J. Thorvaldsen, L. Thoegersen,
       O. Vahtras, M. A. Watson, D. J. D. Wilson, M. Ziolkowski
       and H. Agren,
       "The Dalton quantum chemistry program system",
       WIREs Comput. Mol. Sci. 2014, 4:269-284 (doi: 10.1002/wcms.1172)
     
    and
     
       Dalton, a molecular electronic structure program,
       Release Dalton2025.0-dev (2025), see http://daltonprogram.org
   ----------------------------------------------------------------------------

    Authors in alphabetical order (Major contribution(s) in parenthesis):

  Kestutis Aidas,              Vilnius University,        Lithuania   (QM/MM)
  Celestino Angeli,            University of Ferrara,     Italy       (NEVPT2)
  Juan J. Aucar,               Northeast National UniversiArgentina   (LRESC, Relativistic Effects on NMR Shieldings and EFG)
  Keld L. Bak,                 UNI-C,                     Denmark     (AOSOPPA, non-adiabatic coupling, magnetic properties)
  Vebjoern Bakken,             University of Oslo,        Norway      (DALTON; geometry optimizer, symmetry detection)
  Radovan Bast,                UiT The Arctic U. of NorwayNorway      (DALTON installation and execution frameworks)
  Pablo Baudin,                University of Valencia,    Spain       (Cholesky excitation energies)
  Linus Boman,                 NTNU,                      Norway      (Cholesky decomposition and subsystems)
  Bruno N. Cabral Tenorio,     Technical Univ. of Denmark,Denmark     (Lanczos-based CC methods)
  Ove Christiansen,            Aarhus University,         Denmark     (CC module)
  Renzo Cimiraglia,            University of Ferrara,     Italy       (NEVPT2)
  Sonia Coriani,               Technical Univ. of Denmark,Denmark     (CC and RESPONS modules)
  Janusz Cukras,               University of Warsaw,      Poland      (MChD in RESPONS)
  Paal Dahle,                  University of Oslo,        Norway      (Parallelization)
  Erik K. Dalskov,             UNI-C,                     Denmark     (SOPPA)
  Thomas Enevoldsen,           Univ. of Southern Denmark, Denmark     (SOPPA)
  Janus J. Eriksen,            Aarhus University,         Denmark     (Polarizable embedding, TDA)
  Rasmus Faber,                Technical Univ. of Denmark,Denmark     (Vib.avg. NMR w. SOPPA, parallel AO-SOPPA, CVS-CC and EOMCC)
  Tobias Fahleson,             KTH Stockholm,             Sweden      (Damped cubic response)
  Berta Fernandez,             U. of Santiago de CompostelSpain       (Doublet spin, ESR in RESPONS)
  Lara Ferrighi,               Aarhus University,         Denmark     (PCM Cubic response)
  Heike Fliegl,                University of Oslo,        Norway      (CCSD(R12))
  Luca Frediani,               UiT The Arctic U. of NorwayNorway      (PCM)
  Emmanuel Fromager,           Univ. Strasbourg,          France      (MC-srDFT)
  Bin Gao,                     UiT The Arctic U. of NorwayNorway      (Gen1Int library)
  Andre S. P. Gomes,           CNRS/Universite de Lille,  France      (Frozen density embedding)
  Christof Haettig,            Ruhr-University Bochum,    Germany     (CC module)
  Kasper Hald,                 Aarhus University,         Denmark     (CC module)
  Asger Halkier,               Aarhus University,         Denmark     (CC module)
  Frederik Beyer Hansen,       University of Copenhagen,  Denmark     (Parallel AO-SOPPA)
  Erik D. Hedegaard,           Univ. of Southern Denmark, Denmark     (Polarizable embedding, QM/MM, and MC-srDFT)
  Hanne Heiberg,               University of Oslo,        Norway      (Geometry analysis, selected one-electron integrals)
  Trygve Helgaker,             University of Oslo,        Norway      (DALTON; ABACUS, ERI, DFT modules, London, and much more)
  Alf Christian Hennum,        University of Oslo,        Norway      (Parity violation)
  Hinne Hettema,               University of Auckland,    New Zealand (Quadratic response in RESPONS; SIRIUS supersymmetry)
  Andreas E. Hillers-Bendtsen, University of Copenhagen,  Denmark     (MP3)
  Eirik Hjertenaes,            NTNU,                      Norway      (Cholesky decomposition)
  Nicolai Machholdt Hoeyer,    Aarhus University,         Denmark     (MP3)
  Pi A. B. Haase,              University of Copenhagen,  Denmark     (Triplet AO-SOPPA)
  Maria Francesca Iozzi,       University of Oslo,        Norway      (RPA)
  Christoph Jacob,             TU Braunschweig            Germany     (Frozen density embedding)
  Brano Jansik,                Technical Univ. of Ostrava Czech Rep.  (DFT cubic response)
  Hans Joergen Aa. Jensen,     Univ. of Southern Denmark, Denmark     (DALTON; SIRIUS, RESPONS, ABACUS, MC-srDFT, and much more)
  Dan Jonsson,                 UiT The Arctic U. of NorwayNorway      (Cubic response in RESPONS module)
  Poul Joergensen,             Aarhus University,         Denmark     (RESPONS, ABACUS, and CC modules)
  Maciej Kaminski,             University of Warsaw,      Poland      (CPPh in RESPONS)
  Joanna Kauczor,              Linkoeping University,     Sweden      (Complex polarization propagator (CPP) module)
  Sheela Kirpekar,             Univ. of Southern Denmark, Denmark     (Mass-velocity & Darwin integrals)
  Frederik Oersted Kjeldal,    Technical Univ. of Denmark,Denmark     (MP3)
  Erik Kjellgren,              Univ. of Southern Denmark, Denmark     (MC-srDFT)
  Wim Klopper,                 KIT Karlsruhe,             Germany     (R12 code in CC, SIRIUS, and ABACUS modules)
  Stefan Knecht,               ETH Zurich,                Switzerland (Parallel CI and MCSCF, MC-srDFT)
  Rika Kobayashi,              Australian National Univ., Australia   (DIIS in CC, London in MCSCF)
  Henrik Koch,                 NTNU,                      Norway      (CC module, Cholesky decomposition)
  Jacob Kongsted,              Univ. of Southern Denmark, Denmark     (Polarizable embedding, polarizable density embedding, QM/MM)
  Andrea Ligabue,              University of Modena,      Italy       (CTOCD, AOSOPPA)
  Nanna H. List,               Univ. of Southern Denmark, Denmark     (Polarizable embedding)
  Ola B. Lutnaes,              University of Oslo,        Norway      (DFT Hessian)
  Juan I. Melo,                University of Buenos Aires,Argentina   (LRESC, Relativistic Effects on NMR Shieldings)
  Kurt V. Mikkelsen,           University of Copenhagen,  Denmark     (MC-SCRF, QM/MM, and MP3)
  Rolf H. Myhre,               NTNU,                      Norway      (Subsystems and CC3)
  Christian Neiss,             Univ. Erlangen-Nuernberg,  Germany     (CCSD(R12))
  Christian B. Nielsen,        University of Copenhagen,  Denmark     (QM/MM)
  Patrick Norman,              KTH Stockholm,             Sweden      (Cubic response and complex frequency response in RESPONS)
  Jeppe Olsen,                 Aarhus University,         Denmark     (SIRIUS CI/density modules)
  Jogvan Magnus H. Olsen,      Aarhus University,         Denmark     (Polarizable embedding and polarizable density embedding)
  Anders Osted,                Copenhagen University,     Denmark     (QM/MM)
  Martin J. Packer,            University of Sheffield,   UK          (SOPPA)
  Filip Pawlowski,             Kazimierz Wielki UniversityPoland      (CC3)
  Morten N. Pedersen,          Univ. of Southern Denmark, Denmark     (Polarizable embedding)
  Thomas B. Pedersen,          University of Oslo,        Norway      (Cholesky decomposition)
  Patricio F. Provasi,         University of Northeastern,Argentina   (Analysis of coupling constants in localized orbitals)
  Peter Reinholdt,             Univ. of Southern Denmark, Denmark     (Polarizable embedding and polarizable density embedding)
  Zilvinas Rinkevicius,        KTH Stockholm,             Sweden      (open-shell DFT, ESR)
  Elias Rudberg,               KTH Stockholm,             Sweden      (DFT grid and basis info)
  Torgeir A. Ruden,            University of Oslo,        Norway      (Numerical derivatives in ABACUS)
  Kenneth Ruud,                UiT The Arctic U. of NorwayNorway      (DALTON; ABACUS magnetic properties and much more)
  Pawel Salek,                 KTH Stockholm,             Sweden      (DALTON; DFT code)
  Claire C. M. Samson,         University of Karlsruhe    Germany     (Boys localization, r12 integrals in ERI)
  Alfredo Sanchez de Meras,    University of Valencia,    Spain       (CC module, Cholesky decomposition)
  Trond Saue,                  Paul Sabatier University,  France      (direct Fock matrix construction)
  Stephan P. A. Sauer,         University of Copenhagen,  Denmark     (SOPPA(CCSD), SOPPA prop., AOSOPPA, vibrational g-factors)
  Bernd Schimmelpfennig,       Forschungszentrum KarlsruheGermany     (AMFI module)
  Anna K. Schnack-Petersen,    University of Copenhagen,  Denmark     (RPA(D) and HRPA(D) properties in AOSOPPA)
  Kristian Sneskov,            Aarhus University,         Denmark     (Polarizable embedding, QM/MM)
  Arnfinn H. Steindal,         UiT The Arctic U. of NorwayNorway      (parallel QM/MM, polarizable embedding)
  Casper Steinmann,            Aalborg University,        Denmark     (QFIT, polarizable embedding)
  K. O. Sylvester-Hvid,        University of Copenhagen,  Denmark     (MC-SCRF)
  Peter R. Taylor,             VLSCI/Univ. of Melbourne,  Australia   (Symmetry handling ABACUS, integral transformation)
  Andrew M. Teale,             University of Nottingham,  England     (DFT-AC, DFT-D)
  David P. Tew,                University of Bristol,     England     (CCSD(R12))
  Julien Toulouse,             Sorbonne Univ.,            France      (MC-srDFT)
  Olav Vahtras,                KTH Stockholm,             Sweden      (Triplet response, spin-orbit, ESR, TDDFT, open-shell DFT)
  Lucas Visscher,              Vrije Universiteit AmsterdaNetherlands (Frozen density embedding)
  David J. Wilson,             La Trobe University,       Australia   (DFT Hessian and DFT magnetizabilities)
  Luna Zamok,                  University of Copenhagen,  Denmark     (Block Lanczos RPA solver in SOPPA module)
  Hans Agren,                  KTH Stockholm,             Sweden      (SIRIUS module, RESPONS, MC-SCRF solvation)
 --------------------------------------------------------------------------------

     Date and time (Linux)  : Mon May  4 22:19:39 2026
     Host name              : debian                                  

 * Work memory size             :    64000000 =  488.28 megabytes.

 * Directories for basis set searches:
   1) /home/vdwv/DIPLOM_ITMO/CALCULATIONS_AND_SOFTS/softwares/Dalton_Shenanigans/dalton/dalton/build
   2) /home/vdwv/DIPLOM_ITMO/CALCULATIONS_AND_SOFTS/softwares/Dalton_Shenanigans/dalton/dalton/build/basis


Compilation information
-----------------------

 Who compiled             | vdwv
 Host                     | debian
 System                   | Linux-6.12.73+deb13-amd64
 CMake generator          | Unix Makefiles
 Processor                | x86_64
 64-bit integers          | OFF
 MPI                      | OFF
 Fortran compiler         | /usr/bin/gfortran
 Fortran compiler version | GNU Fortran (Debian 14.2.0-19) 14.2.0
 C compiler               | /usr/bin/gcc
 C compiler version       | gcc (Debian 14.2.0-19) 14.2.0
 C++ compiler             | /usr/bin/g++
 C++ compiler version     | g++ (Debian 14.2.0-19) 14.2.0
 BLAS                     | /opt/intel/oneapi/mkl/2025.3/lib/intel64/libmkl_gf
                          | _lp64.so;/opt/intel/oneapi/mkl/2025.3/lib/intel64/
                          | libmkl_sequential.so;/opt/intel/oneapi/mkl/2025.3/
                          | lib/intel64/libmkl_core.so;/usr/lib/x86_64-linux-g
                          | nu/libpthread.a;/usr/lib/x86_64-linux-gnu/libm.so
 LAPACK                   | /opt/intel/oneapi/mkl/2025.3/lib/intel64/libmkl_la
                          | pack95_lp64.a;/opt/intel/oneapi/mkl/2025.3/lib/int
                          | el64/libmkl_gf_lp64.so
 Static linking           | OFF
 Last Git revision        | 1892235f9264b9be21ec2fefe6e0081d659ab244
 Git branch               | master
 Configuration time       | 2026-05-04 17:50:26.788788

 * Sequential calculation.


   Content of the .dal input file
 ----------------------------------

BASIS
STO-3G
Acetic acid CH3COOH using the STO-3G basis
Using automatic symmetry detection
AtomTypes=3 Angstrom
Charge=6.0 Atoms=2
C1    1.118     -0.893      0.000
C2    0.000      0.162      0.000
Charge=8.0 Atoms=2
O3    0.138      1.370      0.000
O7   -1.258     -0.433      0.000
Charge=1.0 Atoms=4
H4    2.085     -0.401      0.000
H5    1.031     -1.522      0.881
H6    1.031     -1.522     -0.881
H8   -1.893      0.327      0.000

**DALTON INPUT
.RUN WAVE FUN
**WAVE FUN
.HF
**END OF


       *******************************************************************
       *********** Output from DALTON general input processing ***********
       *******************************************************************

 --------------------------------------------------------------------------------
   Overall default print level:    0
   Print level for DALTON.STAT:    1

    HERMIT 1- and 2-electron integral sections will be executed
    "Old" integral transformation used (limited to max 255 basis functions)
    Wave function sections will be executed (SIRIUS module)
 --------------------------------------------------------------------------------


   ****************************************************************************
   *************** Output of molecule and basis set information ***************
   ****************************************************************************


    The two title cards from your ".mol" input:
    --------------------------------------------------------------------------------
 1: Acetic acid CH3COOH using the STO-3G basis
 2: Using automatic symmetry detection
    --------------------------------------------------------------------------------

  Coordinates are entered in Angstrom and converted to atomic units.
          - Conversion factor : 1 bohr = 0.52917721080 A

  Atomic type no.    1
  --------------------
  Nuclear charge:   6.00000
  Number of symmetry independent centers:    2
  Number of basis sets to read;    2
  Basis set file used for this atomic type with Z =   6 :
     "/home/vdwv/DIPLOM_ITMO/CALCULATIONS_AND_SOFTS/softwares/Dalton_Shenanigans/dalton/dalton/build/basis/STO-3G"

  Atomic type no.    2
  --------------------
  Nuclear charge:   8.00000
  Number of symmetry independent centers:    2
  Number of basis sets to read;    2
  Basis set file used for this atomic type with Z =   8 :
     "/home/vdwv/DIPLOM_ITMO/CALCULATIONS_AND_SOFTS/softwares/Dalton_Shenanigans/dalton/dalton/build/basis/STO-3G"

  Atomic type no.    3
  --------------------
  Nuclear charge:   1.00000
  Number of symmetry independent centers:    4
  Number of basis sets to read;    2
  Basis set file used for this atomic type with Z =   1 :
     "/home/vdwv/DIPLOM_ITMO/CALCULATIONS_AND_SOFTS/softwares/Dalton_Shenanigans/dalton/dalton/build/basis/STO-3G"


                      SYMADD: Addition of symmetry requested
                      --------------------------------------

 Symmetry test threshold:  5.00E-06

@  The molecule has been centered at center of mass and rotated
@  so the principal axes of inertia are along coordinate axes.

 Symmetry class found: C(s)           

 Symmetry Independent Centres             
 ----------------------------
O7     8 :     -1.31779064    -2.10325542     0.00000000  Isotope  1
O3     8 :     -1.20866026     2.20444565     0.00000000  Isotope  1
C2     6 :     -0.06745478     0.21025816     0.00000000  Isotope  1
C1     6 :      2.81550323    -0.14582782     0.00000000  Isotope  1
H8     1 :     -3.13511546    -1.65613110     0.00000000  Isotope  1
H5     1 :      3.38665896    -1.20113355     1.66484872  Isotope  1
H4     1 :      3.73786584     1.68527482     0.00000000  Isotope  1

 The following symmetry element was found:   Z        


                         SYMGRP: Point group information
                         -------------------------------

@    Full point group is: C(s)           
@    Represented as:      Cs 

@  * The irrep name for each symmetry:    1: A'     2: A" 

   * The point group was generated by:

      Reflection in the xy-plane

   * Group multiplication table

        |  E   Oxy
   -----+----------
     E  |  E   Oxy
    Oxy | Oxy   E 

   * Character table

        |  E   Oxy
   -----+----------
    A'  |   1    1
    A"  |   1   -1

   * Direct product table

        | A'   A" 
   -----+----------
    A'  | A'   A" 
    A"  | A"   A' 


                                 Isotopic Masses
                                 ---------------

                           C1         12.000000
                           C2         12.000000
                           O3         15.994915
                           O7         15.994915
                           H4          1.007825
                           H5  _1      1.007825
                           H5  _2      1.007825
                           H8          1.007825

                       Total mass:    60.021130 amu
                       Natural abundance:  97.285 %

 Center-of-mass coordinates (a.u.):   -0.000000    0.000000    0.000000
 Center-of-mass coordinates (Angs):   -0.000000    0.000000    0.000000


  Atoms and basis sets
  --------------------

  Number of atom types :    3
  Total number of atoms:    8

  Basis set used is "STO-3G" from the basis set library.

  label    atoms   charge   prim   cont     basis
  ----------------------------------------------------------------------
  C2          2    6.0000    15     5      [6s3p|2s1p]                                        
  O7          2    8.0000    15     5      [6s3p|2s1p]                                        
  H8          4    1.0000     3     1      [3s|1s]                                            
  ----------------------------------------------------------------------
  total:      8   32.0000    72    24
  ----------------------------------------------------------------------

  Threshold for neglecting AO integrals:  1.00D-12


  Cartesian Coordinates (bohr)
  ----------------------------

  Total number of coordinates:   24
  C1      :     1  x   2.8155032251    2  y  -0.1458278244    3  z   0.0000000000
  C2      :     4  x  -0.0674547760    5  y   0.2102581582    6  z   0.0000000000
  O3      :     7  x  -1.2086602601    8  y   2.2044456484    9  z   0.0000000000
  O7      :    10  x  -1.3177906416   11  y  -2.1032554222   12  z   0.0000000000
  H4      :    13  x   3.7378658414   14  y   1.6852748158   15  z   0.0000000000
  H5  / 1 :    16  x   3.3866589602   17  y  -1.2011335504   18  z   1.6648487161
  H5  / 2 :    19  x   3.3866589602   20  y  -1.2011335504   21  z  -1.6648487161
  H8      :    22  x  -3.1351154604   23  y  -1.6561310967   24  z   0.0000000000


  Cartesian Coordinates (xyz format; angstrom)
  --------------------------------------------

    8

  C        1.4899001436           -0.0771687614            0.0000000000
  C       -0.0356955302            0.1112638257            0.0000000000
  O       -0.6395954652            1.1665423996            0.0000000000
  O       -0.6973447762           -1.1129948379            0.0000000000
  H        1.9779934203            0.8918090264            0.0000000000
  H        1.7921427425           -0.6356125020            0.8810000000
  H        1.7921427425           -0.6356125020           -0.8810000000
  H       -1.6590316549           -0.8763868345            0.0000000000


  Symmetry Coordinates
  --------------------

  Number of coordinates in each symmetry:    15    9

  Symmetry  A'  ( 1)

    1   C1    x    1
    2   C1    y    2
    3   C2    x    4
    4   C2    y    5
    5   O3    x    7
    6   O3    y    8
    7   O7    x   10
    8   O7    y   11
    9   H4    x   13
   10   H4    y   14
   11   H5    x    [ 16  +   19 ]/2
   12   H5    y    [ 17  +   20 ]/2
   13   H5    z    [ 18  -   21 ]/2
   14   H8    x   22
   15   H8    y   23

  Symmetry  A"  ( 2)

   16   C1    z    3
   17   C2    z    6
   18   O3    z    9
   19   O7    z   12
   20   H4    z   15
   21   H5    x    [ 16  -   19 ]/2
   22   H5    y    [ 17  -   20 ]/2
   23   H5    z    [ 18  +   21 ]/2
   24   H8    z   24


   Interatomic separations (in Angstrom):
   --------------------------------------

            C1          C2          O3          O7          H4          H5  _1
            ------      ------      ------      ------      ------      ------
 C1    :    0.000000
 C2    :    1.537189    0.000000
 O3    :    2.466084    1.215857    0.000000
 O7    :    2.420119    1.391614    2.280269    0.000000
 H4    :    1.084967    2.159675    2.631967    3.343153    0.000000
 H5  _1:    1.085988    2.162170    3.152344    2.683580    1.773053    0.000000
 H5  _2:    1.085988    2.162170    3.152344    2.683580    1.773053    1.762000
 H8    :    3.248772    1.900177    2.283158    0.990366    4.044066    3.569977

            H5  _2      H8    
            ------      ------
 H5  _2:    0.000000
 H8    :    3.569977    0.000000


  Max    interatomic separation is    4.0441 Angstrom (    7.6422 Bohr)
  between atoms    8 and    5, "H8    " and "H4    ".

  Min HX interatomic separation is    0.9904 Angstrom (    1.8715 Bohr)

  Min YX interatomic separation is    1.2159 Angstrom (    2.2976 Bohr)


  Bond distances (Angstrom):
  --------------------------

                  atom 1     atom 2       distance
                  ------     ------       --------
  bond distance:  C2         C1           1.537189
  bond distance:  O3         C2           1.215857
  bond distance:  O7         C2           1.391614
  bond distance:  H4         C1           1.084967
  bond distance:  H5  _1     C1           1.085988
  bond distance:  H5  _2     C1           1.085988
  bond distance:  H8         O7           0.990366


  Bond angles (degrees):
  ----------------------

                  atom 1     atom 2     atom 3         angle
                  ------     ------     ------         -----
  bond angle:     C2         C1         H4           109.694
  bond angle:     C2         C1         H5  _1       109.831
  bond angle:     C2         C1         H5  _2       109.831
  bond angle:     H4         C1         H5  _1       109.515
  bond angle:     H4         C1         H5  _2       109.515
  bond angle:     H5  _1     C1         H5  _2       108.435
  bond angle:     C1         C2         O3           126.822
  bond angle:     C1         C2         O7           111.348
  bond angle:     O3         C2         O7           121.830
  bond angle:     C2         O7         H8           104.567




 Principal moments of inertia (u*A**2) and principal axes
 --------------------------------------------------------

   IA      45.754465          1.000000   -0.000000    0.000000
   IB      55.729601          0.000000    1.000000    0.000000
   IC      98.355127          0.000000    0.000000    1.000000


 Rotational constants
 --------------------

               A                   B                   C

          11045.4578           9068.4125           5138.3087 MHz
            0.368437            0.302490            0.171396 cm-1


@  Nuclear repulsion energy :  119.182531053227 Hartree


  Symmetry Orbitals
  -----------------

  Number of orbitals in each symmetry:          19    5


  Symmetry  A' ( 1)

    1     C1       1s         1
    2     C1       1s         2
    3     C1       2px        3
    4     C1       2py        4
    5     C2       1s         6
    6     C2       1s         7
    7     C2       2px        8
    8     C2       2py        9
    9     O3       1s        11
   10     O3       1s        12
   11     O3       2px       13
   12     O3       2py       14
   13     O7       1s        16
   14     O7       1s        17
   15     O7       2px       18
   16     O7       2py       19
   17     H4       1s        21
   18     H5       1s        22 +   23
   19     H8       1s        24


  Symmetry  A" ( 2)

   20     C1       2pz        5
   21     C2       2pz       10
   22     O3       2pz       15
   23     O7       2pz       20
   24     H5       1s        22 -   23

  Symmetries of electric field:  A' (1)  A' (1)  A" (2)

  Symmetries of magnetic field:  A" (2)  A" (2)  A' (1)


                     .---------------------------------------.
                     | Starting in Integral Section (HERMIT) |
                     `---------------------------------------'



 ***************************************************************************************
 ****************** Output from **INTEGRALS input processing (HERMIT) ******************
 ***************************************************************************************


 - Using defaults, no **INTEGRALS input found

 Default print level:        1

 Calculation of one- and two-electron Hamiltonian integrals.

 Center of mass  (bohr):     -0.000000000000      0.000000000000      0.000000000000
 Operator center (bohr):      0.000000000000      0.000000000000      0.000000000000
 Gauge origin    (bohr):     -0.000000000000      0.000000000000      0.000000000000
 Dipole origin   (bohr):     -0.000000000000      0.000000000000      0.000000000000

Calculation of 2-electron integrals are postponed until they are needed.


     ************************************************************************
     ************************** Output from HERINT **************************
     ************************************************************************



                      Nuclear contribution to dipole moments
                      --------------------------------------

                 au               Debye          C m (/(10**-30)

      x      3.65275178         9.28436835        30.96931930
      y     -1.17701957        -2.99168514        -9.97918748


  Total CPU  time used in HERMIT:   0.03 seconds
  Total wall time used in HERMIT:   0.03 seconds


                        .----------------------------------.
                        | End of Integral Section (HERMIT) |
                        `----------------------------------'



                   .--------------------------------------------.
                   | Starting in Wave Function Section (SIRIUS) |
                   `--------------------------------------------'


 *** Output from Huckel module :

     Using EWMO model:          F
     Using EHT  model:          T
     Number of Huckel orbitals each symmetry:   19    5

 Huckel EHT eigenvalues for symmetry :  1
          -20.706272     -20.703783     -11.386904     -11.371945      -1.644346
           -1.399771      -1.233811      -0.786282      -0.724446      -0.691437
           -0.573956      -0.564000      -0.491083      -0.290835      -0.268386
           -0.222539      -0.211646      -0.196317      -0.183718

 Huckel EHT eigenvalues for symmetry :  2
           -0.755358      -0.598273      -0.583569      -0.314599      -0.198924

 **********************************************************************
 *SIRIUS* a direct, restricted step, second order MCSCF program       *
 **********************************************************************

 
     Date and time (Linux)  : Mon May  4 22:19:39 2026
     Host name              : debian                                  

 Title lines from ".mol" input file:
     Acetic acid CH3COOH using the STO-3G basis
     Using automatic symmetry detection

 Print level on unit LUPRI =   2 is   0
 Print level on unit LUW4  =   2 is   5

@    Restricted, closed shell Hartree-Fock calculation.

 Initial molecular orbitals are obtained according to
 ".MOSTART EHT   " input option

     Wave function specification
     ============================
@    Wave function type        --- HF ---
@    Number of closed shell electrons          32
@    Number of electrons in active shells       0
@    Total charge of the molecule               0

@    Spin multiplicity and 2 M_S                1         0
@    Total number of symmetries                 2 (point group: Cs )
@    Reference state symmetry                   1 (irrep name : A' )

     Orbital specifications
     ======================
@    Abelian symmetry species          All |    1    2
@                                          |  A'   A" 
                                       --- |  ---  ---
@    Total number of orbitals           24 |   19    5
@    Number of basis functions          24 |   19    5

      ** Automatic occupation of RHF orbitals **

      -- Initial occupation of symmetries is determined from extended Huckel guess.           
      -- Initial occupation of symmetries is :
@    Occupied SCF orbitals              16 |   13    3

     Maximum number of Fock   iterations      0
     Maximum number of DIIS   iterations     60
     Maximum number of QC-SCF iterations     60
     Threshold for SCF convergence     1.00D-05


 ***********************************************
 ***** DIIS acceleration of SCF iterations *****
 ***********************************************

 C1-DIIS algorithm; max error vectors =    8

 Automatic occupation of symmetries with  32 electrons.

 Iter     Total energy    Error norm  Delta(E)    SCF occupation
 -----------------------------------------------------------------------------

Calculating AOSUPINT

---> (Re)generating AOTWOINT


     ************************************************************************
     ************************** Output from HERINT **************************
     ************************************************************************


***  INFO  GETGAB: GABSO--- not found on AOGABINT. Regenerating.

 Threshold for neglecting two-electron integrals:  1.00D-12
 HERMIT - Number of two-electron integrals written:       24877 ( 55.1% )
 HERMIT - Megabytes written:                              0.412

     (Precalculated AO two-electron integrals are transformed to P-supermatrix elements.
      Threshold for discarding integrals :  1.00D-12 )

@  1  -224.310832221       3.25D+00  -2.24D+02    13   3
      Virial theorem: -V/T =      2.000331
@    MULPOP   C1      0.36; C2      1.08; O3     -0.92; O7     -0.46; H4     -0.09; H5  _1 -0.06; H5  _2 -0.06; H8      0.16; 
   1  Level shift: doubly occupied orbital energies shifted by -2.00D-01
 -----------------------------------------------------------------------------
@  2  -224.756418248       8.06D-01  -4.46D-01    13   3
      Virial theorem: -V/T =      2.009801
@    MULPOP   C1     -0.28; C2      0.08; O3      0.00; O7     -0.32; H4      0.11; H5  _1  0.11; H5  _2  0.11; H8      0.20; 
   2  Level shift: doubly occupied orbital energies shifted by -5.00D-02
 -----------------------------------------------------------------------------
@  3  -224.800810043       2.91D-01  -4.44D-02    13   3
      Virial theorem: -V/T =      2.008925
@    MULPOP   C1     -0.20; C2      0.42; O3     -0.39; O7     -0.26; H4      0.08; H5  _1  0.08; H5  _2  0.08; H8      0.18; 
   3  Level shift: doubly occupied orbital energies shifted by -2.50D-02
 -----------------------------------------------------------------------------
@  4  -224.808953200       8.38D-02  -8.14D-03    13   3
      Virial theorem: -V/T =      2.008873
@    MULPOP   C1     -0.20; C2      0.31; O3     -0.26; O7     -0.31; H4      0.08; H5  _1  0.08; H5  _2  0.08; H8      0.21; 
   4  Level shift: doubly occupied orbital energies shifted by -1.25D-02
 -----------------------------------------------------------------------------
@  5  -224.810036193       2.44D-02  -1.08D-03    13   3
      Virial theorem: -V/T =      2.008776
@    MULPOP   C1     -0.21; C2      0.32; O3     -0.27; O7     -0.29; H4      0.08; H5  _1  0.09; H5  _2  0.09; H8      0.20; 
 -----------------------------------------------------------------------------
@  6  -224.810177874       9.95D-03  -1.42D-04    13   3
      Virial theorem: -V/T =      2.008758
@    MULPOP   C1     -0.21; C2      0.32; O3     -0.27; O7     -0.30; H4      0.08; H5  _1  0.08; H5  _2  0.08; H8      0.20; 
 -----------------------------------------------------------------------------
@  7  -224.810199756       2.40D-03  -2.19D-05    13   3
      Virial theorem: -V/T =      2.008773
@    MULPOP   C1     -0.21; C2      0.32; O3     -0.27; O7     -0.29; H4      0.08; H5  _1  0.08; H5  _2  0.08; H8      0.20; 
 -----------------------------------------------------------------------------
@  8  -224.810200654       6.97D-04  -8.98D-07    13   3
      Virial theorem: -V/T =      2.008774
@    MULPOP   C1     -0.21; C2      0.32; O3     -0.27; O7     -0.29; H4      0.08; H5  _1  0.08; H5  _2  0.08; H8      0.20; 
 -----------------------------------------------------------------------------
@  9  -224.810200726       1.47D-04  -7.13D-08    13   3
      Virial theorem: -V/T =      2.008775
@    MULPOP   C1     -0.21; C2      0.32; O3     -0.27; O7     -0.29; H4      0.08; H5  _1  0.08; H5  _2  0.08; H8      0.20; 
 -----------------------------------------------------------------------------
@ 10  -224.810200729       3.67D-05  -3.35D-09    13   3
      Virial theorem: -V/T =      2.008775
@    MULPOP   C1     -0.21; C2      0.32; O3     -0.27; O7     -0.29; H4      0.08; H5  _1  0.08; H5  _2  0.08; H8      0.20; 
 -----------------------------------------------------------------------------
@ 11  -224.810200729       5.94D-06  -2.76D-10    13   3

@ *** DIIS converged in  11 iterations !
@     Converged SCF energy, gradient:   -224.810200729331    5.94D-06
    - total time used in SIRFCK :              0.00 seconds


 *** SCF orbital energy analysis ***

 Number of electrons        :   32
 Closed shell orbitals      :   13    3

 Sym       Hartree-Fock orbital energies

1 A'    -20.30023105   -20.26067071   -11.17211852   -11.06537447    -1.37383019
         -1.27178303    -0.96434100    -0.72546519    -0.60589995    -0.58442538
         -0.52388480    -0.45865264    -0.34347259     0.55278176     0.63629005
          0.66217877     0.71788136     0.75263364     0.99389837

2 A"     -0.58247029    -0.48914602    -0.35449974     0.30481546     0.70702208


    E(LUMO) :     0.30481546 au (symmetry 2)
  - E(HOMO) :    -0.34347259 au (symmetry 1)
  ------------------------------------------
    gap     :     0.64828806 au

 --- Writing SIRIFC interface file

--------------------------------------------------------------------------------


     .--------------------------------------------------.
     | HF-SCF KT IPs [a.u. & eV] from Koopmans' theorem |
     `--------------------------------------------------'


     HF-SCF KT symmetry 1 ( A' ) in point group Cs  -- 13 principal poles with pole strength 1

   ============  ============  ============  ============  ============
      20.300231     20.260671     11.172119     11.065374      1.373830
     552.397387    551.320895    304.008809    301.104156     37.383821
   ============  ============  ============  ============  ============

   ============  ============  ============  ============  ============
       1.271783      0.964341      0.725465      0.605900      0.584425
      34.606977     26.241053     19.740912     16.487376     15.903024
   ============  ============  ============  ============  ============

   ============  ============  ============
       0.523885      0.458653      0.343473
      14.255631     12.480573      9.346365
   ============  ============  ============

     HF-SCF KT symmetry 2 ( A" ) in point group Cs  -- 3 principal poles with pole strength 1

   ============  ============  ============
       0.582470      0.489146      0.354500
      15.849823     13.310340      9.646429
   ============  ============  ============

@ Summary of HF-SCF KT ionization potentials [eV]:

@ Symmetry 1 (A' ) :   552.397     551.321     304.009     301.104      37.384
@                       34.607      26.241      19.741      16.487      15.903
@                       14.256      12.481       9.346

@ Symmetry 2 (A" ) :    15.850      13.310       9.646

  === End of HF-SCF KT output ===
--------------------------------------------------------------------------------


 CPU and wall time for SCF :       0.081       0.081


                       .-----------------------------------.
                       | --- Final results from SIRIUS --- |
                       `-----------------------------------'


@    Spin multiplicity:           1
@    Spatial symmetry:            1 ( irrep  A'  in Cs  )
@    Total charge of molecule:    0

@    Final HF energy:            -224.810200729331                 
@    Nuclear repulsion:           119.182531053227
@    Electronic energy:          -343.992731782558

@    Final gradient norm:           0.000005942748

 
     Date and time (Linux)  : Mon May  4 22:19:40 2026
     Host name              : debian                                  

File label for MO orbitals:   4May26   FOCKDIIS

 (Only coefficients > 0.0100 are printed.)

 Molecular orbitals for symmetry species 1  (A' )
 ------------------------------------------------

    Orbital         1        2        3        4        5        6        7
   1 C1  :1s    -0.0000   0.0000  -0.0010   0.9919  -0.0193  -0.0018  -0.2076
   2 C1  :1s     0.0003  -0.0002  -0.0051   0.0379   0.0485   0.0074   0.5857
   3 C1  :2px   -0.0002   0.0000   0.0039   0.0000  -0.0267  -0.0041  -0.0317
   5 C2  :1s     0.0005  -0.0005   0.9928   0.0020  -0.1324  -0.0331  -0.0720
   6 C2  :1s    -0.0044   0.0073   0.0312  -0.0057   0.3095   0.0709   0.2105
   7 C2  :2px    0.0021  -0.0033  -0.0003  -0.0043  -0.0911  -0.0214   0.1864
   8 C2  :2py    0.0039   0.0056   0.0004   0.0005   0.0324   0.2033  -0.0534
   9 O3  :1s     0.0010  -0.9942   0.0001  -0.0000  -0.1486  -0.1612   0.0430
  10 O3  :1s     0.0003  -0.0262  -0.0056   0.0002   0.5087   0.5694  -0.1672
  11 O3  :2px   -0.0004  -0.0028  -0.0007   0.0003   0.0556   0.0612   0.0449
  12 O3  :2py   -0.0004   0.0050   0.0014   0.0000  -0.1195  -0.0890   0.0053
  13 O7  :1s     0.9942   0.0011   0.0004  -0.0000  -0.1479   0.1749   0.0281
  14 O7  :1s     0.0261  -0.0003  -0.0042   0.0002   0.5228  -0.6371  -0.1130
  15 O7  :2px   -0.0015   0.0003  -0.0015   0.0000  -0.0147   0.0358   0.0868
  16 O7  :2py    0.0038  -0.0003  -0.0021   0.0001   0.0994  -0.0660   0.0136
  17 H4  :1s    -0.0001   0.0002  -0.0001  -0.0070   0.0060   0.0037   0.1522
  18 H5  :1s    -0.0001  -0.0000  -0.0002  -0.0070   0.0057  -0.0017   0.1562
  19 H8  :1s    -0.0057   0.0001  -0.0014  -0.0001   0.0816  -0.1125  -0.0715

    Orbital         8        9       10       11       12       13       14
   1 C1  :1s    -0.0675  -0.0127   0.0121   0.0012   0.0151   0.0279   0.0625
   2 C1  :1s     0.2120   0.0417  -0.0487  -0.0061  -0.0599  -0.1260  -0.3484
   3 C1  :2px    0.2376   0.1794  -0.2054   0.1909   0.2484   0.2835   0.4190
   4 C1  :2py    0.0229  -0.3138  -0.0113   0.4735  -0.0918  -0.0591  -0.2591
   5 C2  :1s     0.1441   0.0589   0.0416   0.0241   0.0099   0.0093  -0.1216
   6 C2  :1s    -0.4989  -0.1927  -0.1401  -0.0717  -0.0480  -0.0212   0.6659
   7 C2  :2px   -0.0168  -0.2192   0.3938  -0.1279  -0.1938  -0.1173   0.0915
   8 C2  :2py    0.1759  -0.2896  -0.0467  -0.1603   0.2758  -0.0303  -0.3871
   9 O3  :1s    -0.0630  -0.0710  -0.0743  -0.0239   0.0430  -0.0020   0.0126
  10 O3  :1s     0.2809   0.3523   0.3780   0.1254  -0.2457   0.0053  -0.0552
  11 O3  :2px   -0.0635  -0.3730   0.1091  -0.1827   0.2856   0.7309   0.0500
  12 O3  :2py    0.1425   0.1173   0.4522   0.0835  -0.3728   0.4423   0.1067
  13 O7  :1s    -0.0355  -0.0024  -0.0700  -0.0237  -0.0724   0.0007   0.1165
  14 O7  :1s     0.1557   0.0085   0.3458   0.1161   0.3791  -0.0020  -0.7453
  15 O7  :2px   -0.3591   0.2680   0.2077   0.2706   0.3091   0.0490   0.3524
  16 O7  :2py   -0.2101   0.0986  -0.3909   0.0567  -0.4628   0.4165  -0.5097
  17 H4  :1s     0.1624  -0.1397  -0.0921   0.4653   0.0086   0.0395   0.2730
  18 H5  :1s     0.1122   0.1867  -0.0587  -0.1761   0.0938   0.0675  -0.1049
  19 H8  :1s     0.2850  -0.1967  -0.1420  -0.2099  -0.2838  -0.0504   0.8223

    Orbital        15       16       17       18       19
   1 C1  :1s     0.0634   0.0017  -0.1633   0.1671  -0.0328
   2 C1  :1s    -0.3561  -0.0066   1.0527  -1.0701   0.2304
   3 C1  :2px    0.8271  -0.0007   0.5511   0.0266  -0.1861
   4 C1  :2py    0.3886  -0.5705  -0.4777  -0.5803  -0.3866
   5 C2  :1s    -0.1466  -0.0874   0.0476   0.0151  -0.0694
   6 C2  :1s     0.8859   0.4899  -0.2732  -0.0729   0.5104
   7 C2  :2px    0.4843  -0.2636   0.3910   0.7717  -0.5603
   8 C2  :2py    0.1841  -0.3750   0.1108   0.3028   1.0638
   9 O3  :1s     0.0390   0.0084  -0.0244  -0.0141   0.1083
  10 O3  :1s    -0.2573  -0.0494   0.1671   0.1009  -0.8201
  11 O3  :2px   -0.3325   0.0571   0.0040  -0.1642  -0.4400
  12 O3  :2py    0.2210   0.1333  -0.2300  -0.2377   0.7441
  13 O7  :1s    -0.0201   0.0004  -0.0280  -0.0463  -0.0131
  14 O7  :1s     0.1381   0.0160   0.1781   0.3028   0.0940
  15 O7  :2px   -0.3090  -0.7487   0.1272   0.0817   0.2762
  16 O7  :2py   -0.0029  -0.3286   0.2562   0.3977   0.0479
  17 H4  :1s    -0.5607   0.5385  -0.2783   0.8870   0.2021
  18 H5  :1s     0.1633  -0.2933  -0.7996   0.1773  -0.1730
  19 H8  :1s    -0.3383  -0.6882   0.0526  -0.0253   0.0858

 Molecular orbitals for symmetry species 2  (A" )
 ------------------------------------------------

    Orbital         1        2        3        4        5
   1 C1  :2pz    0.4592   0.3473   0.0523   0.0749  -1.1109
   2 C2  :2pz    0.3456  -0.3726  -0.2959   0.8328   0.2458
   3 O3  :2pz    0.2346  -0.3168  -0.6226  -0.7022  -0.1044
   4 O7  :2pz    0.2978  -0.5788   0.7112  -0.2976  -0.0630
   5 H5  :1s     0.3122   0.2724   0.0689  -0.2026   0.8452

  Total CPU  time used in SIRIUS :   0.09 seconds
  Total wall time used in SIRIUS :   0.09 seconds

 
     Date and time (Linux)  : Mon May  4 22:19:40 2026
     Host name              : debian                                  


                     .---------------------------------------.
                     | End of Wave Function Section (SIRIUS) |
                     `---------------------------------------'

  Total CPU  time used in DALTON:   0.13 seconds
  Total wall time used in DALTON:   0.13 seconds

 
     Date and time (Linux)  : Mon May  4 22:19:40 2026
     Host name              : debian                                  
