
    -----------------------------------------------------------------------
          Psi4: An Open-Source Ab Initio Electronic Structure Package
                               Psi4 1.10 release

                         Git: Rev {} zzzzzzz 


    D. G. A. Smith, L. A. Burns, A. C. Simmonett, R. M. Parrish,
    M. C. Schieber, R. Galvelis, P. Kraus, H. Kruse, R. Di Remigio,
    A. Alenaizan, A. M. James, S. Lehtola, J. P. Misiewicz, M. Scheurer,
    R. A. Shaw, J. B. Schriber, Y. Xie, Z. L. Glick, D. A. Sirianni,
    J. S. O'Brien, J. M. Waldrop, A. Kumar, E. G. Hohenstein,
    B. P. Pritchard, B. R. Brooks, H. F. Schaefer III, A. Yu. Sokolov,
    K. Patkowski, A. E. DePrince III, U. Bozkaya, R. A. King,
    F. A. Evangelista, J. M. Turney, T. D. Crawford, C. D. Sherrill,
    J. Chem. Phys. 152(18) 184108 (2020). https://doi.org/10.1063/5.0006002

                            Additional Code Authors
    E. T. Seidl, C. L. Janssen, E. F. Valeev, M. L. Leininger,
    J. F. Gonthier, R. M. Richard, H. R. McAlexander, M. Saitow, X. Wang,
    P. Verma, M. H. Lechner, A. Jiang, S. Behnle, A. G. Heide,
    M. F. Herbst, D. L. Poole, T. Győri, E. C. Mitchell, J. P. Pederson,
    and A. M. Wallace

             Previous Authors, Complete List of Code Contributors,
                       and Citations for Specific Modules
    https://github.com/psi4/psi4/blob/master/codemeta.json
    https://github.com/psi4/psi4/graphs/contributors
    https://psicode.org/psi4manual/master/introduction.html#citing-psifour

    -----------------------------------------------------------------------


    Psi4 started on: Tuesday, 05 May 2026 08:56AM

    Process ID: 7525
    Host:       debian
    PSIDATADIR: /home/vdwv/DIPLOM_ITMO/CALCULATIONS_AND_SOFTS/softwares/Psi4_Shenanigans/psi4conda/share/psi4
    Memory:     500.0 MiB
    Threads:    1
    Addons:     adcc, a̶m̶b̶i̶t̶, b̶s̶e̶, c̶c̶t̶3̶, c̶f̶o̶u̶r̶, c̶h̶e̶m̶p̶s̶2̶, c̶p̶p̶e̶, ddx, dftd3, dftd4,
                dkh, ecpint, einsums, f̶o̶r̶t̶e̶, g̶a̶u̶x̶c̶, gcp, g̶d̶m̶a̶, geometric,
                g̶p̶u̶_̶d̶f̶c̶c̶, i̶n̶t̶e̶g̶r̶a̶t̶o̶r̶x̶x̶, i̶p̶i̶, libefp, m̶d̶i̶, m̶p̶2̶d̶,
                m̶r̶c̶c̶, ooo, o̶p̶e̶n̶f̶e̶r̶m̶i̶o̶n̶p̶s̶i̶4̶, pcmsolver, p̶s̶i̶4̶f̶o̶c̶k̶c̶i̶,
                p̶s̶i̶x̶a̶s̶, r̶e̶s̶p̶, s̶i̶m̶i̶n̶t̶, s̶n̶s̶m̶p̶2̶, v̶2̶r̶d̶m̶_̶c̶a̶s̶s̶c̶f̶

  ==> Input File <==

--------------------------------------------------------------------------
#! Sample HF/3-21G CCl2O computation

memory 600 mb

molecule ccl2o {
  C1   0.000  1.385  0.000
  C2   1.199  0.692  0.000
  C3   1.199 -0.692  0.000
  C4   0.000 -1.385  0.000
  C5  -1.199 -0.692  0.000
  C6  -1.199  0.692  0.000

  H7   0.000  2.457  0.000
  H8   2.128  1.228  0.000
  H9   2.128 -1.228  0.000
  H10  0.000 -2.457  0.000
  H11 -2.128 -1.228  0.000
  H12 -2.128  1.228  0.000

  units angstrom
}


set basis 3-21G
energy('scf')

--------------------------------------------------------------------------

  Memory set to 572.205 MiB by Python driver.

Scratch directory: /tmp/
   => Libint2 <=

    Primary   basis highest AM E, G, H:  6, 6, 3
    Auxiliary basis highest AM E, G, H:  7, 7, 4
    Onebody   basis highest AM E, G, H:  -, -, -
    Solid Harmonics ordering:            Gaussian

*** tstart() called on debian
*** at Tue May  5 08:56:04 2026

   => Loading Basis Set <=

    Name: 3-21G
    Role: ORBITAL
    Keyword: BASIS
    atoms 1-6  entry C          line    68 file /home/vdwv/DIPLOM_ITMO/CALCULATIONS_AND_SOFTS/softwares/Psi4_Shenanigans/psi4conda/share/psi4/basis/3-21g.gbs 
    atoms 7-12 entry H          line    21 file /home/vdwv/DIPLOM_ITMO/CALCULATIONS_AND_SOFTS/softwares/Psi4_Shenanigans/psi4conda/share/psi4/basis/3-21g.gbs 


         ---------------------------------------------------------
                                   SCF
               by Justin Turney, Rob Parrish, Andy Simmonett
                          and Daniel G. A. Smith
                              RHF Reference
                        1 Threads,    572 MiB Core
         ---------------------------------------------------------

  ==> Geometry <==

    Molecular point group: d2h
    Full point group: D2h

    Geometry (in Angstrom), charge = 0, multiplicity = 1:

       Center              X                  Y                   Z               Mass       
    ------------   -----------------  -----------------  -----------------  -----------------
         C           -0.000000000000     1.385000000000     0.000000000000    12.000000000000
         C            1.199000000000     0.692000000000     0.000000000000    12.000000000000
         C            1.199000000000    -0.692000000000     0.000000000000    12.000000000000
         C            0.000000000000    -1.385000000000     0.000000000000    12.000000000000
         C           -1.199000000000    -0.692000000000     0.000000000000    12.000000000000
         C           -1.199000000000     0.692000000000     0.000000000000    12.000000000000
         H           -0.000000000000     2.457000000000     0.000000000000     1.007825032230
         H            2.128000000000     1.228000000000     0.000000000000     1.007825032230
         H            2.128000000000    -1.228000000000     0.000000000000     1.007825032230
         H            0.000000000000    -2.457000000000     0.000000000000     1.007825032230
         H           -2.128000000000    -1.228000000000     0.000000000000     1.007825032230
         H           -2.128000000000     1.228000000000     0.000000000000     1.007825032230

  Running in d2h symmetry.

  Rotational constants: A =      0.19319  B =      0.19317  C =      0.09659 [cm^-1]
  Rotational constants: A =   5791.63759  B =   5790.96996  C =   2895.65188 [MHz]
  Nuclear repulsion =  205.105571427506277

  Charge       = 0
  Multiplicity = 1
  Electrons    = 42
  Nalpha       = 21
  Nbeta        = 21

  ==> Algorithm <==

  SCF Algorithm Type is DF.
  DIIS enabled.
  MOM disabled.
  Fractional occupation disabled.
  Guess Type is SAD.
  Energy threshold   = 1.00e-06
  Density threshold  = 1.00e-06
  Integral threshold = 1.00e-12

  ==> Primary Basis <==

  Basis Set: 3-21G
    Blend: 3-21G
    Number of shells: 42
    Number of basis functions: 66
    Number of Cartesian functions: 66
    Spherical Harmonics?: false
    Max angular momentum: 1

   => Loading Basis Set <=

    Name: (3-21G AUX)
    Role: JKFIT
    Keyword: DF_BASIS_SCF
    atoms 1-6  entry C          line   198 file /home/vdwv/DIPLOM_ITMO/CALCULATIONS_AND_SOFTS/softwares/Psi4_Shenanigans/psi4conda/share/psi4/basis/def2-universal-jkfit.gbs 
    atoms 7-12 entry H          line    18 file /home/vdwv/DIPLOM_ITMO/CALCULATIONS_AND_SOFTS/softwares/Psi4_Shenanigans/psi4conda/share/psi4/basis/def2-universal-jkfit.gbs 

  ==> Integral Setup <==

  DFHelper Memory: AOs need 0.026 GiB; user supplied 0.419 GiB. 
  SCF_SUBTYPE=INCORE selected. In-core MEM_DF algorithm will be used.
  Using in-core AOs.

  ==> MemDFJK: Density-Fitted J/K Matrices <==

    J tasked:                   Yes
    K tasked:                   Yes
    wK tasked:                   No
    OpenMP threads:               1
    Memory [MiB]:               429
    Algorithm:                 Core
    Schwarz Cutoff:           1E-12
    Mask sparsity (%):       1.3774
    Fitting Condition:        1E-10

   => Auxiliary Basis Set <=

  Basis Set: (3-21G AUX)
    Blend: DEF2-UNIVERSAL-JKFIT
    Number of shells: 186
    Number of basis functions: 654
    Number of Cartesian functions: 654
    Spherical Harmonics?: false
    Max angular momentum: 4

  Minimum eigenvalue in the overlap matrix is 2.3112688776E-03.
  Reciprocal condition number of the overlap matrix is 4.9371143232E-04.
    Using symmetric orthogonalization.

  ==> Pre-Iterations <==

  SCF Guess: Superposition of Atomic Densities via on-the-fly atomic UHF (no occupation information).

   -------------------------
    Irrep   Nso     Nmo    
   -------------------------
     Ag        16      16 
     B1g       11      11 
     B2g        2       2 
     B3g        4       4 
     Au         2       2 
     B1u        4       4 
     B2u       16      16 
     B3u       11      11 
   -------------------------
    Total      66      66
   -------------------------

  ==> Iterations <==

                           Total Energy        Delta E     RMS |[F,P]|

   @DF-RHF iter SAD:  -222.34550645174008   -2.22346e+02   0.00000e+00 
   @DF-RHF iter   1:  -221.89310158256552    4.52405e-01   1.14211e-01 ADIIS
   @DF-RHF iter   2:  -227.73980000093030   -5.84670e+00   6.17818e-02 ADIIS/DIIS
   @DF-RHF iter   3:  -229.34003580937812   -1.60024e+00   1.32991e-02 ADIIS/DIIS
   @DF-RHF iter   4:  -229.41834442173953   -7.83086e-02   1.28592e-03 ADIIS/DIIS
   @DF-RHF iter   5:  -229.41935661880291   -1.01220e-03   1.68542e-04 ADIIS/DIIS
   @DF-RHF iter   6:  -229.41936982250658   -1.32037e-05   1.35942e-05 DIIS
   @DF-RHF iter   7:  -229.41936991923245   -9.67259e-08   5.15739e-06 DIIS
   @DF-RHF iter   8:  -229.41936993011689   -1.08844e-08   6.14070e-07 DIIS
  Energy and wave function converged.


  ==> Post-Iterations <==

    Orbital Energies [Eh]
    ---------------------

    Doubly Occupied:                                                      

       1B2u  -11.175531     1Ag   -11.175322     1B1g  -11.175276  
       2B2u  -11.175101     1B3u  -11.175062     2Ag   -11.174517  
       3Ag    -1.157386     2B3u   -1.016588     3B2u   -1.016409  
       4Ag    -0.825788     2B1g   -0.825392     5Ag    -0.719832  
       4B2u   -0.639373     3B3u   -0.624948     5B2u   -0.592772  
       4B3u   -0.592713     1B1u   -0.508478     6Ag    -0.491656  
       3B1g   -0.491136     1B2g   -0.339104     1B3g   -0.338874  

    Virtual:                                                              

       2B1u    0.151109     1Au     0.151449     7Ag     0.257341  
       5B3u    0.324384     6B2u    0.324559     8Ag     0.371977  
       4B1g    0.372064     2B3g    0.375572     7B2u    0.375600  
       9Ag     0.508522     5B1g    0.508728     6B3u    0.524276  
       8B2u    0.524645     6B1g    0.813623     9B2u    0.835195  
       7B3u    0.870354    10Ag     0.907018     3B1u    0.955602  
      11Ag     1.007306     7B1g    1.007837     2B2g    1.053722  
       3B3g    1.053822     8B3u    1.088420    10B2u    1.088802  
       4B1u    1.108003     2Au     1.108107    12Ag     1.136548  
       4B3g    1.178978    11B2u    1.290342     8B1g    1.316107  
      13Ag     1.316279     9B3u    1.414655    12B2u    1.415304  
       9B1g    1.424363    10B3u    1.558222    13B2u    1.558646  
      14Ag     1.597315    14B2u    1.723211    15Ag     1.732934  
      10B1g    1.733601    11B3u    1.812300    15B2u    1.812574  
      16Ag     2.172698    11B1g    2.173118    16B2u    2.775382  

    Final Occupation by Irrep:
             Ag   B1g   B2g   B3g    Au   B1u   B2u   B3u 
    DOCC [     6,    3,    1,    1,    0,    1,    5,    4 ]
    NA   [     6,    3,    1,    1,    0,    1,    5,    4 ]
    NB   [     6,    3,    1,    1,    0,    1,    5,    4 ]

  @DF-RHF Final Energy:  -229.41936993011689

   => Energetics <=

    Nuclear Repulsion Energy =            205.1055714275062769
    One-Electron Energy =                -714.5872006280970936
    Two-Electron Energy =                 280.0622592704739304
    Total Energy =                       -229.4193699301168863

Computation Completed


Properties will be evaluated at   0.000000,   0.000000,   0.000000 [a0]

Properties computed using the SCF density matrix


 Multipole Moments:

 ------------------------------------------------------------------------------------
     Multipole            Electronic (a.u.)      Nuclear  (a.u.)        Total (a.u.)
 ------------------------------------------------------------------------------------

 L = 1.  Multiply by 2.5417464519 to convert [e a0] to [Debye]
 Dipole X            :          0.0000000            0.0000000            0.0000000
 Dipole Y            :          0.0000000            0.0000000            0.0000000
 Dipole Z            :          0.0000000            0.0000000            0.0000000
 Magnitude           :                                                    0.0000000

 ------------------------------------------------------------------------------------

*** tstop() called on debian at Tue May  5 08:56:07 2026
Module time:
	user time   =       2.55 seconds =       0.04 minutes
	system time =       0.07 seconds =       0.00 minutes
	total time  =          3 seconds =       0.05 minutes
Total time:
	user time   =       2.55 seconds =       0.04 minutes
	system time =       0.07 seconds =       0.00 minutes
	total time  =          3 seconds =       0.05 minutes

    Psi4 stopped on: Tuesday, 05 May 2026 08:56AM
    Psi4 wall time for execution: 0:00:02.71

*** Psi4 exiting successfully. Buy a developer a beer!
