
    -----------------------------------------------------------------------
          Psi4: An Open-Source Ab Initio Electronic Structure Package
                               Psi4 1.10 release

                         Git: Rev {} zzzzzzz 


    D. G. A. Smith, L. A. Burns, A. C. Simmonett, R. M. Parrish,
    M. C. Schieber, R. Galvelis, P. Kraus, H. Kruse, R. Di Remigio,
    A. Alenaizan, A. M. James, S. Lehtola, J. P. Misiewicz, M. Scheurer,
    R. A. Shaw, J. B. Schriber, Y. Xie, Z. L. Glick, D. A. Sirianni,
    J. S. O'Brien, J. M. Waldrop, A. Kumar, E. G. Hohenstein,
    B. P. Pritchard, B. R. Brooks, H. F. Schaefer III, A. Yu. Sokolov,
    K. Patkowski, A. E. DePrince III, U. Bozkaya, R. A. King,
    F. A. Evangelista, J. M. Turney, T. D. Crawford, C. D. Sherrill,
    J. Chem. Phys. 152(18) 184108 (2020). https://doi.org/10.1063/5.0006002

                            Additional Code Authors
    E. T. Seidl, C. L. Janssen, E. F. Valeev, M. L. Leininger,
    J. F. Gonthier, R. M. Richard, H. R. McAlexander, M. Saitow, X. Wang,
    P. Verma, M. H. Lechner, A. Jiang, S. Behnle, A. G. Heide,
    M. F. Herbst, D. L. Poole, T. Győri, E. C. Mitchell, J. P. Pederson,
    and A. M. Wallace

             Previous Authors, Complete List of Code Contributors,
                       and Citations for Specific Modules
    https://github.com/psi4/psi4/blob/master/codemeta.json
    https://github.com/psi4/psi4/graphs/contributors
    https://psicode.org/psi4manual/master/introduction.html#citing-psifour

    -----------------------------------------------------------------------


    Psi4 started on: Tuesday, 05 May 2026 08:53AM

    Process ID: 7470
    Host:       debian
    PSIDATADIR: /home/vdwv/DIPLOM_ITMO/CALCULATIONS_AND_SOFTS/softwares/Psi4_Shenanigans/psi4conda/share/psi4
    Memory:     500.0 MiB
    Threads:    1
    Addons:     adcc, a̶m̶b̶i̶t̶, b̶s̶e̶, c̶c̶t̶3̶, c̶f̶o̶u̶r̶, c̶h̶e̶m̶p̶s̶2̶, c̶p̶p̶e̶, ddx, dftd3, dftd4,
                dkh, ecpint, einsums, f̶o̶r̶t̶e̶, g̶a̶u̶x̶c̶, gcp, g̶d̶m̶a̶, geometric,
                g̶p̶u̶_̶d̶f̶c̶c̶, i̶n̶t̶e̶g̶r̶a̶t̶o̶r̶x̶x̶, i̶p̶i̶, libefp, m̶d̶i̶, m̶p̶2̶d̶,
                m̶r̶c̶c̶, ooo, o̶p̶e̶n̶f̶e̶r̶m̶i̶o̶n̶p̶s̶i̶4̶, pcmsolver, p̶s̶i̶4̶f̶o̶c̶k̶c̶i̶,
                p̶s̶i̶x̶a̶s̶, r̶e̶s̶p̶, s̶i̶m̶i̶n̶t̶, s̶n̶s̶m̶p̶2̶, v̶2̶r̶d̶m̶_̶c̶a̶s̶s̶c̶f̶

  ==> Input File <==

--------------------------------------------------------------------------
#! Sample HF/STO-3G CCl2O computation

memory 600 mb

molecule ccl2o {
  C1   0.000  1.387  0.000
  C2   1.201  0.693  0.000
  C3   1.201 -0.693  0.000
  C4   0.000 -1.387  0.000
  C5  -1.201 -0.693  0.000
  C6  -1.201  0.693  0.000

  H7   0.000  2.469  0.000
  H8   2.139  1.235  0.000
  H9   2.139 -1.235  0.000
  H10  0.000 -2.469  0.000
  H11 -2.139 -1.235  0.000
  H12 -2.139  1.235  0.000

  units angstrom
}


set basis STO-3G
energy('scf')

--------------------------------------------------------------------------

  Memory set to 572.205 MiB by Python driver.

Scratch directory: /tmp/
   => Libint2 <=

    Primary   basis highest AM E, G, H:  6, 6, 3
    Auxiliary basis highest AM E, G, H:  7, 7, 4
    Onebody   basis highest AM E, G, H:  -, -, -
    Solid Harmonics ordering:            Gaussian

*** tstart() called on debian
*** at Tue May  5 08:53:57 2026

   => Loading Basis Set <=

    Name: STO-3G
    Role: ORBITAL
    Keyword: BASIS
    atoms 1-6  entry C          line    61 file /home/vdwv/DIPLOM_ITMO/CALCULATIONS_AND_SOFTS/softwares/Psi4_Shenanigans/psi4conda/share/psi4/basis/sto-3g.gbs 
    atoms 7-12 entry H          line    19 file /home/vdwv/DIPLOM_ITMO/CALCULATIONS_AND_SOFTS/softwares/Psi4_Shenanigans/psi4conda/share/psi4/basis/sto-3g.gbs 


         ---------------------------------------------------------
                                   SCF
               by Justin Turney, Rob Parrish, Andy Simmonett
                          and Daniel G. A. Smith
                              RHF Reference
                        1 Threads,    572 MiB Core
         ---------------------------------------------------------

  ==> Geometry <==

    Molecular point group: d2h
    Full point group: D2h

    Geometry (in Angstrom), charge = 0, multiplicity = 1:

       Center              X                  Y                   Z               Mass       
    ------------   -----------------  -----------------  -----------------  -----------------
         C           -0.000000000000     1.387000000000     0.000000000000    12.000000000000
         C            1.201000000000     0.693000000000     0.000000000000    12.000000000000
         C            1.201000000000    -0.693000000000     0.000000000000    12.000000000000
         C            0.000000000000    -1.387000000000     0.000000000000    12.000000000000
         C           -1.201000000000    -0.693000000000     0.000000000000    12.000000000000
         C           -1.201000000000     0.693000000000     0.000000000000    12.000000000000
         H           -0.000000000000     2.469000000000     0.000000000000     1.007825032230
         H            2.139000000000     1.235000000000     0.000000000000     1.007825032230
         H            2.139000000000    -1.235000000000     0.000000000000     1.007825032230
         H            0.000000000000    -2.469000000000     0.000000000000     1.007825032230
         H           -2.139000000000    -1.235000000000     0.000000000000     1.007825032230
         H           -2.139000000000     1.235000000000     0.000000000000     1.007825032230

  Running in d2h symmetry.

  Rotational constants: A =      0.19231  B =      0.19226  C =      0.09614 [cm^-1]
  Rotational constants: A =   5765.32507  B =   5763.92001  C =   2882.31123 [MHz]
  Nuclear repulsion =  204.533289056126051

  Charge       = 0
  Multiplicity = 1
  Electrons    = 42
  Nalpha       = 21
  Nbeta        = 21

  ==> Algorithm <==

  SCF Algorithm Type is DF.
  DIIS enabled.
  MOM disabled.
  Fractional occupation disabled.
  Guess Type is SAD.
  Energy threshold   = 1.00e-06
  Density threshold  = 1.00e-06
  Integral threshold = 1.00e-12

  ==> Primary Basis <==

  Basis Set: STO-3G
    Blend: STO-3G
    Number of shells: 24
    Number of basis functions: 36
    Number of Cartesian functions: 36
    Spherical Harmonics?: true
    Max angular momentum: 1

   => Loading Basis Set <=

    Name: (STO-3G AUX)
    Role: JKFIT
    Keyword: DF_BASIS_SCF
    atoms 1-6  entry C          line   198 file /home/vdwv/DIPLOM_ITMO/CALCULATIONS_AND_SOFTS/softwares/Psi4_Shenanigans/psi4conda/share/psi4/basis/def2-universal-jkfit.gbs 
    atoms 7-12 entry H          line    18 file /home/vdwv/DIPLOM_ITMO/CALCULATIONS_AND_SOFTS/softwares/Psi4_Shenanigans/psi4conda/share/psi4/basis/def2-universal-jkfit.gbs 

  ==> Integral Setup <==

  DFHelper Memory: AOs need 0.008 GiB; user supplied 0.419 GiB. 
  SCF_SUBTYPE=INCORE selected. In-core MEM_DF algorithm will be used.
  Using in-core AOs.

  ==> MemDFJK: Density-Fitted J/K Matrices <==

    J tasked:                   Yes
    K tasked:                   Yes
    wK tasked:                   No
    OpenMP threads:               1
    Memory [MiB]:               429
    Algorithm:                 Core
    Schwarz Cutoff:           1E-12
    Mask sparsity (%):       1.3889
    Fitting Condition:        1E-10

   => Auxiliary Basis Set <=

  Basis Set: (STO-3G AUX)
    Blend: DEF2-UNIVERSAL-JKFIT
    Number of shells: 186
    Number of basis functions: 558
    Number of Cartesian functions: 654
    Spherical Harmonics?: true
    Max angular momentum: 4

  Minimum eigenvalue in the overlap matrix is 1.7238895445E-01.
  Reciprocal condition number of the overlap matrix is 7.8435581789E-02.
    Using symmetric orthogonalization.

  ==> Pre-Iterations <==

  SCF Guess: Superposition of Atomic Densities via on-the-fly atomic UHF (no occupation information).

   -------------------------
    Irrep   Nso     Nmo    
   -------------------------
     Ag         9       9 
     B1g        6       6 
     B2g        1       1 
     B3g        2       2 
     Au         1       1 
     B1u        2       2 
     B2u        9       9 
     B3u        6       6 
   -------------------------
    Total      36      36
   -------------------------

  ==> Iterations <==

                           Total Energy        Delta E     RMS |[F,P]|

   @DF-RHF iter SAD:  -207.77375850067403   -2.07774e+02   0.00000e+00 
   @DF-RHF iter   1:  -225.72240773290551   -1.79486e+01   1.01920e-01 ADIIS
   @DF-RHF iter   2:  -227.86172217418357   -2.13931e+00   1.32774e-02 ADIIS/DIIS
   @DF-RHF iter   3:  -227.89150203615060   -2.97799e-02   1.60103e-03 ADIIS/DIIS
   @DF-RHF iter   4:  -227.89203728451173   -5.35248e-04   1.42200e-04 ADIIS/DIIS
   @DF-RHF iter   5:  -227.89204138268138   -4.09817e-06   1.35239e-05 DIIS
   @DF-RHF iter   6:  -227.89204141189376   -2.92124e-08   3.76859e-06 DIIS
   @DF-RHF iter   7:  -227.89204141393748   -2.04372e-09   2.87509e-07 DIIS
  Energy and wave function converged.


  ==> Post-Iterations <==

    Orbital Energies [Eh]
    ---------------------

    Doubly Occupied:                                                      

       1B3u  -11.029428     1Ag   -11.029407     1B2u  -11.029403  
       1B1g  -11.029022     2Ag   -11.029004     2B2u  -11.028847  
       3Ag    -1.095715     2B3u   -0.958231     3B2u   -0.958053  
       4Ag    -0.769169     2B1g   -0.768731     5Ag    -0.665644  
       4B2u   -0.593532     3B3u   -0.557286     5B2u   -0.536047  
       4B3u   -0.535984     1B1u   -0.460924     6Ag    -0.434081  
       3B1g   -0.433380     1B2g   -0.282856     1B3g   -0.282453  

    Virtual:                                                              

       2B1u    0.270505     1Au     0.271107     2B3g    0.509195  
       7Ag     0.578908     5B3u    0.649019     6B2u    0.650367  
       7B2u    0.728877     4B1g    0.743444     8Ag     0.743533  
       9Ag     0.889953     5B1g    0.890084     6B3u    0.905729  
       8B2u    0.906965     6B1g    1.099606     9B2u    1.163896  

    Final Occupation by Irrep:
             Ag   B1g   B2g   B3g    Au   B1u   B2u   B3u 
    DOCC [     6,    3,    1,    1,    0,    1,    5,    4 ]
    NA   [     6,    3,    1,    1,    0,    1,    5,    4 ]
    NB   [     6,    3,    1,    1,    0,    1,    5,    4 ]

  @DF-RHF Final Energy:  -227.89204141393748

   => Energetics <=

    Nuclear Repulsion Energy =            204.5332890561260513
    One-Electron Energy =                -713.8362510420984108
    Two-Electron Energy =                 281.4109205720349109
    Total Energy =                       -227.8920414139374770

Computation Completed


Properties will be evaluated at   0.000000,   0.000000,   0.000000 [a0]

Properties computed using the SCF density matrix


 Multipole Moments:

 ------------------------------------------------------------------------------------
     Multipole            Electronic (a.u.)      Nuclear  (a.u.)        Total (a.u.)
 ------------------------------------------------------------------------------------

 L = 1.  Multiply by 2.5417464519 to convert [e a0] to [Debye]
 Dipole X            :          0.0000000            0.0000000            0.0000000
 Dipole Y            :          0.0000000            0.0000000            0.0000000
 Dipole Z            :          0.0000000            0.0000000            0.0000000
 Magnitude           :                                                    0.0000000

 ------------------------------------------------------------------------------------

*** tstop() called on debian at Tue May  5 08:53:59 2026
Module time:
	user time   =       1.60 seconds =       0.03 minutes
	system time =       0.06 seconds =       0.00 minutes
	total time  =          2 seconds =       0.03 minutes
Total time:
	user time   =       1.60 seconds =       0.03 minutes
	system time =       0.06 seconds =       0.00 minutes
	total time  =          2 seconds =       0.03 minutes

    Psi4 stopped on: Tuesday, 05 May 2026 08:53AM
    Psi4 wall time for execution: 0:00:01.74

*** Psi4 exiting successfully. Buy a developer a beer!
