 argument  1 = ch3cooh_acetic_acid_dft_b3lyp_6-31g.nw
                                         
                                         


             Northwest Computational Chemistry Package (NWChem) 7.2.3
             --------------------------------------------------------


                    Environmental Molecular Sciences Laboratory
                       Pacific Northwest National Laboratory
                                Richland, WA 99352

                              Copyright (c) 1994-2022
                       Pacific Northwest National Laboratory
                            Battelle Memorial Institute

             NWChem is an open-source computational chemistry package
                        distributed under the terms of the
                      Educational Community License (ECL) 2.0
             A copy of the license is included with this distribution
                              in the LICENSE.TXT file

                                  ACKNOWLEDGMENT
                                  --------------

            This software and its documentation were developed at the
            EMSL at Pacific Northwest National Laboratory, a multiprogram
            national laboratory, operated for the U.S. Department of Energy
            by Battelle under Contract Number DE-AC05-76RL01830. Support
            for this work was provided by the Department of Energy Office
            of Biological and Environmental Research, Office of Basic
            Energy Sciences, and the Office of Advanced Scientific Computing.


           Job information
           ---------------

    hostname        = debian
    program         = nwchem
    date            = Tue May  5 14:14:29 2026

    compiled        = Mon_May_12_21:20:53_2025
    source          = /build/reproducible-path/nwchem-7.2.3/build-openmpi
    nwchem branch   = 7.2.3
    nwchem revision = N/A
    ga revision     = N/A
    use scalapack   = T
    input           = ch3cooh_acetic_acid_dft_b3lyp_6-31g.nw
    prefix          = acetic_acid.
    data base       = ./acetic_acid.db
    status          = startup
    nproc           =        1
    time left       =     -1s



           Memory information
           ------------------

    heap     =   32767998 doubles =    250.0 Mbytes
    stack    =   32767995 doubles =    250.0 Mbytes
    global   =   65536000 doubles =    500.0 Mbytes (distinct from heap & stack)
    total    =  131071993 doubles =   1000.0 Mbytes
    verify   = yes
    hardfail = no 


           Directory information
           ---------------------

  0 permanent = .
  0 scratch   = .




                                NWChem Input Module
                                -------------------



 Scaling coordinates for geometry "geometry" by  1.889725989
 (inverse scale =  0.529177249)

 C1  symmetry detected

          ------
          auto-z
          ------
  no constraints, skipping    0.0000000000000000     
  no constraints, skipping    0.0000000000000000     


                             Geometry "geometry" -> ""
                             -------------------------

 Output coordinates in angstroms (scale by  1.889725989 to convert to a.u.)

  No.       Tag          Charge          X              Y              Z
 ---- ---------------- ---------- -------------- -------------- --------------
    1 C1                   6.0000    -0.02631042    -1.40403674     0.00000000
    2 C2                   6.0000     0.12515702     0.08773221     0.00000000
    3 O3                   8.0000     1.18304707     0.72152212     0.00000000
    4 H4                   1.0000     0.95785334    -1.87147090     0.00000000
    5 H5                   1.0000    -0.59068283    -1.72441742     0.88200000
    6 H6                   1.0000    -0.59068283    -1.72441742    -0.88200000
    7 O7                   8.0000    -1.10596752     0.71902721     0.00000000
    8 H8                   1.0000    -0.98620367     1.69373826     0.00000000

      Atomic Mass 
      ----------- 

      C1                12.000000
      C2                12.000000
      O3                15.994910
      H4                 1.007825
      H5                 1.007825
      H6                 1.007825
      O7                15.994910
      H8                 1.007825


 Effective nuclear repulsion energy (a.u.)     119.4894931576

            Nuclear Dipole moment (a.u.) 
            ----------------------------
        X                 Y               Z
 ---------------- ---------------- ----------------
    -0.0000000000     0.0000000000     0.0000000000



                                Z-matrix (autoz)
                                -------- 

 Units are Angstrom for bonds and degrees for angles

      Type          Name      I     J     K     L     M      Value
      ----------- --------  ----- ----- ----- ----- ----- ----------
    1 Stretch                  1     2                       1.49944
    2 Stretch                  1     4                       1.08953
    3 Stretch                  1     5                       1.09503
    4 Stretch                  1     6                       1.09503
    5 Stretch                  2     3                       1.23322
    6 Stretch                  2     7                       1.38355
    7 Stretch                  7     8                       0.98204
    8 Bend                     1     2     3               126.72383
    9 Bend                     1     2     7               111.35012
   10 Bend                     2     1     4               109.60796
   11 Bend                     2     1     5               110.06858
   12 Bend                     2     1     6               110.06858
   13 Bend                     2     7     8               110.14292
   14 Bend                     3     2     7               121.92605
   15 Bend                     4     1     5               109.87874
   16 Bend                     4     1     6               109.87874
   17 Bend                     5     1     6               107.30934
   18 Torsion                  1     2     7     8         180.00000
   19 Torsion                  3     2     1     4           0.00000
   20 Torsion                  3     2     1     5         120.96003
   21 Torsion                  3     2     1     6        -120.96003
   22 Torsion                  3     2     7     8          -0.00000
   23 Torsion                  4     1     2     7         180.00000
   24 Torsion                  5     1     2     7         -59.03997
   25 Torsion                  6     1     2     7          59.03997


            XYZ format geometry
            -------------------
     8
 geometry
 C1                   -0.02631042    -1.40403674     0.00000000
 C2                    0.12515702     0.08773221     0.00000000
 O3                    1.18304707     0.72152212     0.00000000
 H4                    0.95785334    -1.87147090     0.00000000
 H5                   -0.59068283    -1.72441742     0.88200000
 H6                   -0.59068283    -1.72441742    -0.88200000
 O7                   -1.10596752     0.71902721     0.00000000
 H8                   -0.98620367     1.69373826     0.00000000

 ==============================================================================
                                internuclear distances
 ------------------------------------------------------------------------------
       center one      |      center two      | atomic units |  angstroms
 ------------------------------------------------------------------------------
    2 C2               |   1 C1               |     2.83353  |     1.49944
    3 O3               |   2 C2               |     2.33044  |     1.23322
    4 H4               |   1 C1               |     2.05891  |     1.08953
    5 H5               |   1 C1               |     2.06930  |     1.09503
    6 H6               |   1 C1               |     2.06930  |     1.09503
    7 O7               |   2 C2               |     2.61452  |     1.38355
    8 H8               |   7 O7               |     1.85579  |     0.98204
 ------------------------------------------------------------------------------
                         number of included internuclear distances:          7
 ==============================================================================



 ==============================================================================
                                 internuclear angles
 ------------------------------------------------------------------------------
        center 1       |       center 2       |       center 3       |  degrees
 ------------------------------------------------------------------------------
    2 C2               |   1 C1               |   4 H4               |   109.61
    2 C2               |   1 C1               |   5 H5               |   110.07
    2 C2               |   1 C1               |   6 H6               |   110.07
    4 H4               |   1 C1               |   5 H5               |   109.88
    4 H4               |   1 C1               |   6 H6               |   109.88
    5 H5               |   1 C1               |   6 H6               |   107.31
    1 C1               |   2 C2               |   3 O3               |   126.72
    1 C1               |   2 C2               |   7 O7               |   111.35
    3 O3               |   2 C2               |   7 O7               |   121.93
    2 C2               |   7 O7               |   8 H8               |   110.14
 ------------------------------------------------------------------------------
                            number of included internuclear angles:         10
 ==============================================================================



                      Basis "ao basis" -> "" (cartesian)
                      -----
  C (Carbon)
  ----------
            Exponent  Coefficients 
       -------------- ---------------------------------------------------------
  1 S  3.04752490E+03  0.001835
  1 S  4.57369510E+02  0.014037
  1 S  1.03948690E+02  0.068843
  1 S  2.92101550E+01  0.232184
  1 S  9.28666300E+00  0.467941
  1 S  3.16392700E+00  0.362312

  2 S  7.86827240E+00 -0.119332
  2 S  1.88128850E+00 -0.160854
  2 S  5.44249300E-01  1.143456

  3 P  7.86827240E+00  0.068999
  3 P  1.88128850E+00  0.316424
  3 P  5.44249300E-01  0.744308

  4 S  1.68714400E-01  1.000000

  5 P  1.68714400E-01  1.000000

  O (Oxygen)
  ----------
            Exponent  Coefficients 
       -------------- ---------------------------------------------------------
  1 S  5.48467170E+03  0.001831
  1 S  8.25234950E+02  0.013950
  1 S  1.88046960E+02  0.068445
  1 S  5.29645000E+01  0.232714
  1 S  1.68975700E+01  0.470193
  1 S  5.79963530E+00  0.358521

  2 S  1.55396160E+01 -0.110778
  2 S  3.59993360E+00 -0.148026
  2 S  1.01376180E+00  1.130767

  3 P  1.55396160E+01  0.070874
  3 P  3.59993360E+00  0.339753
  3 P  1.01376180E+00  0.727159

  4 S  2.70005800E-01  1.000000

  5 P  2.70005800E-01  1.000000

  H (Hydrogen)
  ------------
            Exponent  Coefficients 
       -------------- ---------------------------------------------------------
  1 S  1.87311370E+01  0.033495
  1 S  2.82539370E+00  0.234727
  1 S  6.40121700E-01  0.813757

  2 S  1.61277800E-01  1.000000



 Summary of "ao basis" -> "" (cartesian)
 ------------------------------------------------------------------------------
       Tag                 Description            Shells   Functions and Types
 ---------------- ------------------------------  ------  ---------------------
 C                           6-31g                   5        9   3s2p
 O                           6-31g                   5        9   3s2p
 H                           6-31g                   2        2   2s



                                 NWChem DFT Module
                                 -----------------



  Caching 1-el integrals 
  WARNING: movecs_in_org=atomic not equal to movecs_in=./acetic_acid.movecs
   Time after variat. SCF:      0.2
   Time prior to 1st pass:      0.2

           Memory utilization after 1st SCF pass: 
           Heap Space remaining (MW):       30.85            30848382
          Stack Space remaining (MW):       32.77            32767540

   convergence    iter        energy       DeltaE   RMS-Dens  Diis-err    time
 ---------------- ----- ----------------- --------- --------- ---------  ------
 d= 0,ls=0.0,diis     1   -228.8446985848 -3.48D+02  5.27D-02  1.24D+00     1.1
 d= 0,ls=0.0,diis     2   -228.4012541596  4.43D-01  3.83D-02  5.88D+00     1.5
 d= 0,ls=0.0,diis     3   -228.9863348223 -5.85D-01  8.34D-03  1.93D-01     1.8
 d= 0,ls=0.0,diis     4   -229.0000273717 -1.37D-02  2.79D-03  5.82D-02     2.2
 d= 0,ls=0.0,diis     5   -229.0055477628 -5.52D-03  4.84D-04  7.38D-04     2.5
  Resetting Diis
 d= 0,ls=0.0,diis     6   -229.0056215638 -7.38D-05  1.13D-04  3.30D-05     2.9
 d= 0,ls=0.0,diis     7   -229.0056256667 -4.10D-06  4.53D-05  1.41D-06     3.3
 d= 0,ls=0.0,diis     8   -229.0056254714  1.95D-07  2.87D-05  3.29D-06     3.7
 d= 0,ls=0.0,diis     9   -229.0056258204 -3.49D-07  7.26D-06  2.95D-07     4.0


         Total DFT energy =     -229.005625820381
      One electron energy =     -548.531599675400
           Coulomb energy =      229.526451982860
    Exchange-Corr. energy =      -29.489971285426
 Nuclear repulsion energy =      119.489493157586

 Numeric. integr. density =       32.000000773732

     Total iterative time =      3.8s



 Task  times  cpu:        3.8s     wall:        4.0s
 Summary of allocated global arrays
-----------------------------------
  No active global arrays


MA_summarize_allocated_blocks: starting scan ...
MA_summarize_allocated_blocks: scan completed: 0 heap blocks, 0 stack blocks
MA usage statistics:

	allocation statistics:
					      heap	     stack
					      ----	     -----
	current number of blocks	         0	         0
	maximum number of blocks	        21	        53
	current total bytes		         0	         0
	maximum total bytes		  15356832	  22512440
	maximum total K-bytes		     15357	     22513
	maximum total M-bytes		        16	        23


                                NWChem Input Module
                                -------------------




                                     CITATION
                                     --------
                Please cite the following reference when publishing
                           results obtained with NWChem:

          E. Apra, E. J. Bylaska, W. A. de Jong, N. Govind, K. Kowalski,
       T. P. Straatsma, M. Valiev, H. J. J. van Dam, Y. Alexeev, J. Anchell,
       V. Anisimov, F. W. Aquino, R. Atta-Fynn, J. Autschbach, N. P. Bauman,
     J. C. Becca, D. E. Bernholdt, K. Bhaskaran-Nair, S. Bogatko, P. Borowski,
         J. Boschen, J. Brabec, A. Bruner, E. Cauet, Y. Chen, G. N. Chuev,
      C. J. Cramer, J. Daily, M. J. O. Deegan, T. H. Dunning Jr., M. Dupuis,
   K. G. Dyall, G. I. Fann, S. A. Fischer, A. Fonari, H. Fruchtl, L. Gagliardi,
      J. Garza, N. Gawande, S. Ghosh, K. Glaesemann, A. W. Gotz, J. Hammond,
       V. Helms, E. D. Hermes, K. Hirao, S. Hirata, M. Jacquelin, L. Jensen,
   B. G. Johnson, H. Jonsson, R. A. Kendall, M. Klemm, R. Kobayashi, V. Konkov,
      S. Krishnamoorthy, M. Krishnan, Z. Lin, R. D. Lins, R. J. Littlefield,
      A. J. Logsdail, K. Lopata, W. Ma, A. V. Marenich, J. Martin del Campo,
   D. Mejia-Rodriguez, J. E. Moore, J. M. Mullin, T. Nakajima, D. R. Nascimento,
    J. A. Nichols, P. J. Nichols, J. Nieplocha, A. Otero-de-la-Roza, B. Palmer,
    A. Panyala, T. Pirojsirikul, B. Peng, R. Peverati, J. Pittner, L. Pollack,
   R. M. Richard, P. Sadayappan, G. C. Schatz, W. A. Shelton, D. W. Silverstein,
   D. M. A. Smith, T. A. Soares, D. Song, M. Swart, H. L. Taylor, G. S. Thomas,
            V. Tipparaju, D. G. Truhlar, K. Tsemekhman, T. Van Voorhis,
      A. Vazquez-Mayagoitia, P. Verma, O. Villa, A. Vishnu, K. D. Vogiatzis,
        D. Wang, J. H. Weare, M. J. Williamson, T. L. Windus, K. Wolinski,
        A. T. Wong, Q. Wu, C. Yang, Q. Yu, M. Zacharias, Z. Zhang, Y. Zhao,
                                and R. J. Harrison
                        "NWChem: Past, present, and future
                         J. Chem. Phys. 152, 184102 (2020)
                               doi:10.1063/5.0004997

                                      AUTHORS
                                      -------
  E. Apra, E. J. Bylaska, N. Govind, K. Kowalski, M. Valiev, D. Mejia-Rodriguez,
       A. Kunitsa, N. P. Bauman, A. Panyala, W. A. de Jong, T. P. Straatsma,
   H. J. J. van Dam, D. Wang, T. L. Windus, J. Hammond, J. Autschbach, A. Woods,
    K. Bhaskaran-Nair, J. Brabec, K. Lopata, S. A. Fischer, S. Krishnamoorthy,
     M. Jacquelin, W. Ma, M. Klemm, O. Villa, Y. Chen, V. Anisimov, F. Aquino,
     S. Hirata, M. T. Hackler, E. Hermes, L. Jensen, J. E. Moore, J. C. Becca,
      V. Konjkov, T. Risthaus, M. Malagoli, A. Marenich, A. Otero-de-la-Roza,
        J. Mullin, P. Nichols, R. Peverati, J. Pittner, Y. Zhao, P.-D. Fan,
        A. Fonari, M. J. Williamson, R. J. Harrison, J. R. Rehr, M. Dupuis,
     D. Silverstein, D. M. A. Smith, J. Nieplocha, V. Tipparaju, M. Krishnan,
     B. E. Van Kuiken, A. Vazquez-Mayagoitia, M. Swart, Q. Wu, T. Van Voorhis,
     A. A. Auer, M. Nooijen, L. D. Crosby, E. Brown, G. Cisneros, G. I. Fann,
   H. Fruchtl, J. Garza, K. Hirao, R. A. Kendall, J. A. Nichols, K. Tsemekhman,
    K. Wolinski, J. Anchell, D. E. Bernholdt, P. Borowski, T. Clark, D. Clerc,
   H. Dachsel, M. J. O. Deegan, K. Dyall, D. Elwood, E. Glendening, M. Gutowski,
   A. C. Hess, J. Jaffe, B. G. Johnson, J. Ju, R. Kobayashi, R. Kutteh, Z. Lin,
   R. Littlefield, X. Long, B. Meng, T. Nakajima, S. Niu, L. Pollack, M. Rosing,
   K. Glaesemann, G. Sandrone, M. Stave, H. Taylor, G. Thomas, J. H. van Lenthe,
                               A. T. Wong, Z. Zhang.

 Total times  cpu:        3.8s     wall:        4.0s
