
    -----------------------------------------------------------------------
          Psi4: An Open-Source Ab Initio Electronic Structure Package
                               Psi4 1.10 release

                         Git: Rev {} zzzzzzz 


    D. G. A. Smith, L. A. Burns, A. C. Simmonett, R. M. Parrish,
    M. C. Schieber, R. Galvelis, P. Kraus, H. Kruse, R. Di Remigio,
    A. Alenaizan, A. M. James, S. Lehtola, J. P. Misiewicz, M. Scheurer,
    R. A. Shaw, J. B. Schriber, Y. Xie, Z. L. Glick, D. A. Sirianni,
    J. S. O'Brien, J. M. Waldrop, A. Kumar, E. G. Hohenstein,
    B. P. Pritchard, B. R. Brooks, H. F. Schaefer III, A. Yu. Sokolov,
    K. Patkowski, A. E. DePrince III, U. Bozkaya, R. A. King,
    F. A. Evangelista, J. M. Turney, T. D. Crawford, C. D. Sherrill,
    J. Chem. Phys. 152(18) 184108 (2020). https://doi.org/10.1063/5.0006002

                            Additional Code Authors
    E. T. Seidl, C. L. Janssen, E. F. Valeev, M. L. Leininger,
    J. F. Gonthier, R. M. Richard, H. R. McAlexander, M. Saitow, X. Wang,
    P. Verma, M. H. Lechner, A. Jiang, S. Behnle, A. G. Heide,
    M. F. Herbst, D. L. Poole, T. Győri, E. C. Mitchell, J. P. Pederson,
    and A. M. Wallace

             Previous Authors, Complete List of Code Contributors,
                       and Citations for Specific Modules
    https://github.com/psi4/psi4/blob/master/codemeta.json
    https://github.com/psi4/psi4/graphs/contributors
    https://psicode.org/psi4manual/master/introduction.html#citing-psifour

    -----------------------------------------------------------------------


    Psi4 started on: Tuesday, 05 May 2026 08:33AM

    Process ID: 6611
    Host:       debian
    PSIDATADIR: /home/vdwv/DIPLOM_ITMO/CALCULATIONS_AND_SOFTS/softwares/Psi4_Shenanigans/psi4conda/share/psi4
    Memory:     500.0 MiB
    Threads:    1
    Addons:     adcc, a̶m̶b̶i̶t̶, b̶s̶e̶, c̶c̶t̶3̶, c̶f̶o̶u̶r̶, c̶h̶e̶m̶p̶s̶2̶, c̶p̶p̶e̶, ddx, dftd3, dftd4,
                dkh, ecpint, einsums, f̶o̶r̶t̶e̶, g̶a̶u̶x̶c̶, gcp, g̶d̶m̶a̶, geometric,
                g̶p̶u̶_̶d̶f̶c̶c̶, i̶n̶t̶e̶g̶r̶a̶t̶o̶r̶x̶x̶, i̶p̶i̶, libefp, m̶d̶i̶, m̶p̶2̶d̶,
                m̶r̶c̶c̶, ooo, o̶p̶e̶n̶f̶e̶r̶m̶i̶o̶n̶p̶s̶i̶4̶, pcmsolver, p̶s̶i̶4̶f̶o̶c̶k̶c̶i̶,
                p̶s̶i̶x̶a̶s̶, r̶e̶s̶p̶, s̶i̶m̶i̶n̶t̶, s̶n̶s̶m̶p̶2̶, v̶2̶r̶d̶m̶_̶c̶a̶s̶s̶c̶f̶

  ==> Input File <==

--------------------------------------------------------------------------
#! Sample HF/cc-pVTZ CH4 computation

memory 600 mb

molecule ch4 {
  C1  0.000  0.000  0.000
  H2  0.625  0.625  0.625
  H3 -0.625 -0.625  0.625
  H4 -0.625  0.625 -0.625
  H5  0.625 -0.625 -0.625  
  units angstrom
}


set basis cc-pVTZ
energy('scf')

--------------------------------------------------------------------------

  Memory set to 572.205 MiB by Python driver.

Scratch directory: /tmp/
   => Libint2 <=

    Primary   basis highest AM E, G, H:  6, 6, 3
    Auxiliary basis highest AM E, G, H:  7, 7, 4
    Onebody   basis highest AM E, G, H:  -, -, -
    Solid Harmonics ordering:            Gaussian

*** tstart() called on debian
*** at Tue May  5 08:33:07 2026

   => Loading Basis Set <=

    Name: CC-PVTZ
    Role: ORBITAL
    Keyword: BASIS
    atoms 1   entry C          line   186 file /home/vdwv/DIPLOM_ITMO/CALCULATIONS_AND_SOFTS/softwares/Psi4_Shenanigans/psi4conda/share/psi4/basis/cc-pvtz.gbs 
    atoms 2-5 entry H          line    23 file /home/vdwv/DIPLOM_ITMO/CALCULATIONS_AND_SOFTS/softwares/Psi4_Shenanigans/psi4conda/share/psi4/basis/cc-pvtz.gbs 


         ---------------------------------------------------------
                                   SCF
               by Justin Turney, Rob Parrish, Andy Simmonett
                          and Daniel G. A. Smith
                              RHF Reference
                        1 Threads,    572 MiB Core
         ---------------------------------------------------------

  ==> Geometry <==

    Molecular point group: c2v
    Full point group: Td

    Geometry (in Angstrom), charge = 0, multiplicity = 1:

       Center              X                  Y                   Z               Mass       
    ------------   -----------------  -----------------  -----------------  -----------------
         C            0.000000000000     0.000000000000     0.000000000000    12.000000000000
         H            0.883883476483     0.000000000000     0.625000000000     1.007825032230
         H           -0.883883476483    -0.000000000000     0.625000000000     1.007825032230
         H           -0.000000000000     0.883883476483    -0.625000000000     1.007825032230
         H            0.000000000000    -0.883883476483    -0.625000000000     1.007825032230

  Running in c2v symmetry.

  Rotational constants: A =      5.35256  B =      5.35256  C =      5.35256 [cm^-1]
  Rotational constants: A = 160465.63407  B = 160465.63407  C = 160465.63407 [MHz]
  Nuclear repulsion =   13.528078244874514

  Charge       = 0
  Multiplicity = 1
  Electrons    = 10
  Nalpha       = 5
  Nbeta        = 5

  ==> Algorithm <==

  SCF Algorithm Type is DF.
  DIIS enabled.
  MOM disabled.
  Fractional occupation disabled.
  Guess Type is SAD.
  Energy threshold   = 1.00e-06
  Density threshold  = 1.00e-06
  Integral threshold = 1.00e-12

  ==> Primary Basis <==

  Basis Set: CC-PVTZ
    Blend: CC-PVTZ
    Number of shells: 34
    Number of basis functions: 86
    Number of Cartesian functions: 95
    Spherical Harmonics?: true
    Max angular momentum: 3

   => Loading Basis Set <=

    Name: (CC-PVTZ AUX)
    Role: JKFIT
    Keyword: DF_BASIS_SCF
    atoms 1   entry C          line   125 file /home/vdwv/DIPLOM_ITMO/CALCULATIONS_AND_SOFTS/softwares/Psi4_Shenanigans/psi4conda/share/psi4/basis/cc-pvtz-jkfit.gbs 
    atoms 2-5 entry H          line    51 file /home/vdwv/DIPLOM_ITMO/CALCULATIONS_AND_SOFTS/softwares/Psi4_Shenanigans/psi4conda/share/psi4/basis/cc-pvtz-jkfit.gbs 

  ==> Integral Setup <==

  DFHelper Memory: AOs need 0.013 GiB; user supplied 0.419 GiB. 
  SCF_SUBTYPE=INCORE selected. In-core MEM_DF algorithm will be used.
  Using in-core AOs.

  ==> MemDFJK: Density-Fitted J/K Matrices <==

    J tasked:                   Yes
    K tasked:                   Yes
    wK tasked:                   No
    OpenMP threads:               1
    Memory [MiB]:               429
    Algorithm:                 Core
    Schwarz Cutoff:           1E-12
    Mask sparsity (%):       0.0000
    Fitting Condition:        1E-10

   => Auxiliary Basis Set <=

  Basis Set: (CC-PVTZ AUX)
    Blend: CC-PVTZ-JKFIT
    Number of shells: 65
    Number of basis functions: 199
    Number of Cartesian functions: 236
    Spherical Harmonics?: true
    Max angular momentum: 4

  Minimum eigenvalue in the overlap matrix is 1.7686476967E-03.
  Reciprocal condition number of the overlap matrix is 3.1075203970E-04.
    Using symmetric orthogonalization.

  ==> Pre-Iterations <==

  SCF Guess: Superposition of Atomic Densities via on-the-fly atomic UHF (no occupation information).

   -------------------------
    Irrep   Nso     Nmo    
   -------------------------
     A1        33      33 
     A2        11      11 
     B1        21      21 
     B2        21      21 
   -------------------------
    Total      86      86
   -------------------------

  ==> Iterations <==

                           Total Energy        Delta E     RMS |[F,P]|

   @DF-RHF iter SAD:   -40.78348807131781   -4.07835e+01   0.00000e+00 
   @DF-RHF iter   1:   -39.85698284868117    9.26505e-01   1.48705e-02 DIIS/ADIIS
   @DF-RHF iter   2:   -40.14919509668938   -2.92212e-01   8.32815e-03 DIIS/ADIIS
   @DF-RHF iter   3:   -40.21168305004178   -6.24880e-02   8.64490e-04 DIIS/ADIIS
   @DF-RHF iter   4:   -40.21336390422206   -1.68085e-03   2.16028e-04 DIIS/ADIIS
   @DF-RHF iter   5:   -40.21346530796740   -1.01404e-04   2.91139e-05 DIIS
   @DF-RHF iter   6:   -40.21346756126031   -2.25329e-06   2.66164e-06 DIIS
   @DF-RHF iter   7:   -40.21346758303275   -2.17724e-08   2.22910e-07 DIIS
  Energy and wave function converged.


  ==> Post-Iterations <==

    Orbital Energies [Eh]
    ---------------------

    Doubly Occupied:                                                      

       1A1   -11.203504     2A1    -0.945516     3A1    -0.546459  
       1B2    -0.546459     1B1    -0.546459  

    Virtual:                                                              

       4A1     0.144006     2B2     0.230105     5A1     0.230105  
       2B1     0.230105     6A1     0.364014     3B2     0.364014  
       3B1     0.364014     7A1     0.644618     4B2     0.650442  
       8A1     0.650442     4B1     0.650442     1A2     0.685788  
       9A1     0.685788    10A1     0.760274     5B1     1.079231  
       2A2     1.079231     5B2     1.079231    11A1     1.158660  
       6B2     1.158660     6B1     1.158660     7B1     1.321283  
       7B2     1.321283    12A1     1.321283     8B2     1.538347  
      13A1     1.538347     8B1     1.538347    14A1     1.602235  
       3A2     1.602235    15A1     1.818384     9B1     2.421308  
      16A1     2.421308     9B2     2.421308    17A1     2.563106  
      10B2     2.993485    18A1     2.993485    10B1     2.993485  
      19A1     3.136435     4A2     3.136435    11B1     3.145663  
       5A2     3.145663    11B2     3.145663    12B2     3.312182  
      20A1     3.312182    12B1     3.312182     6A2     3.623882  
      13B2     3.623882    13B1     3.623882    14B2     3.749192  
      21A1     3.749192    14B1     3.749192    22A1     3.805501  
       7A2     3.805501    23A1     3.896795    15B1     4.100538  
      15B2     4.100538    24A1     4.100538    25A1     4.128151  
       8A2     4.128151    16B1     4.399164     9A2     4.399164  
      16B2     4.399164    17B1     4.555412    26A1     4.555412  
      17B2     4.555412    27A1     4.859641    28A1     5.079944  
      18B2     5.079944    18B1     5.079944    29A1     5.500641  
      19B1     5.500641    19B2     5.500641    10A2     5.528577  
      20B1     5.528577    20B2     5.528577    30A1     5.595630  
      31A1     5.672267    11A2     5.672267    21B2     6.229766  
      21B1     6.229766    32A1     6.229766    33A1    14.613153  

    Final Occupation by Irrep:
             A1    A2    B1    B2 
    DOCC [     3,    0,    1,    1 ]
    NA   [     3,    0,    1,    1 ]
    NB   [     3,    0,    1,    1 ]

  @DF-RHF Final Energy:   -40.21346758303275

   => Energetics <=

    Nuclear Repulsion Energy =             13.5280782448745143
    One-Electron Energy =                 -79.9062786997878334
    Two-Electron Energy =                  26.1647328718805774
    Total Energy =                        -40.2134675830327524

Computation Completed


Properties will be evaluated at   0.000000,   0.000000,   0.000000 [a0]

Properties computed using the SCF density matrix


 Multipole Moments:

 ------------------------------------------------------------------------------------
     Multipole            Electronic (a.u.)      Nuclear  (a.u.)        Total (a.u.)
 ------------------------------------------------------------------------------------

 L = 1.  Multiply by 2.5417464519 to convert [e a0] to [Debye]
 Dipole X            :          0.0000000            0.0000000            0.0000000
 Dipole Y            :          0.0000000            0.0000000            0.0000000
 Dipole Z            :          0.0000000            0.0000000            0.0000000
 Magnitude           :                                                    0.0000000

 ------------------------------------------------------------------------------------

*** tstop() called on debian at Tue May  5 08:33:07 2026
Module time:
	user time   =       0.88 seconds =       0.01 minutes
	system time =       0.05 seconds =       0.00 minutes
	total time  =          0 seconds =       0.00 minutes
Total time:
	user time   =       0.88 seconds =       0.01 minutes
	system time =       0.05 seconds =       0.00 minutes
	total time  =          0 seconds =       0.00 minutes

    Psi4 stopped on: Tuesday, 05 May 2026 08:33AM
    Psi4 wall time for execution: 0:00:00.99

*** Psi4 exiting successfully. Buy a developer a beer!
