 argument  1 = c6h6_benzene_dft_b3lyp_sto-3g.nw
                                         
                                         


             Northwest Computational Chemistry Package (NWChem) 7.2.3
             --------------------------------------------------------


                    Environmental Molecular Sciences Laboratory
                       Pacific Northwest National Laboratory
                                Richland, WA 99352

                              Copyright (c) 1994-2022
                       Pacific Northwest National Laboratory
                            Battelle Memorial Institute

             NWChem is an open-source computational chemistry package
                        distributed under the terms of the
                      Educational Community License (ECL) 2.0
             A copy of the license is included with this distribution
                              in the LICENSE.TXT file

                                  ACKNOWLEDGMENT
                                  --------------

            This software and its documentation were developed at the
            EMSL at Pacific Northwest National Laboratory, a multiprogram
            national laboratory, operated for the U.S. Department of Energy
            by Battelle under Contract Number DE-AC05-76RL01830. Support
            for this work was provided by the Department of Energy Office
            of Biological and Environmental Research, Office of Basic
            Energy Sciences, and the Office of Advanced Scientific Computing.


           Job information
           ---------------

    hostname        = debian
    program         = nwchem
    date            = Tue May  5 13:55:29 2026

    compiled        = Mon_May_12_21:20:53_2025
    source          = /build/reproducible-path/nwchem-7.2.3/build-openmpi
    nwchem branch   = 7.2.3
    nwchem revision = N/A
    ga revision     = N/A
    use scalapack   = T
    input           = c6h6_benzene_dft_b3lyp_sto-3g.nw
    prefix          = benzene.
    data base       = ./benzene.db
    status          = startup
    nproc           =        1
    time left       =     -1s



           Memory information
           ------------------

    heap     =   65535996 doubles =    500.0 Mbytes
    stack    =   65536001 doubles =    500.0 Mbytes
    global   =  131072000 doubles =   1000.0 Mbytes (distinct from heap & stack)
    total    =  262143997 doubles =   2000.0 Mbytes
    verify   = yes
    hardfail = no 


           Directory information
           ---------------------

  0 permanent = .
  0 scratch   = .




                                NWChem Input Module
                                -------------------



 Scaling coordinates for geometry "geometry" by  1.889725989
 (inverse scale =  0.529177249)

  zeroes
  zeroes
  zeroes
  zeroes
  zeroes
  zeroes
  zeroes
  zeroes
  zeroes
  zeroes
  zeroes
  zeroes
  zeroes
  zeroes
  zeroes
  zeroes
  zeroes
  zeroes
  zeroes
  zeroes
  zeroes
  zeroes
  zeroes
  zeroes
  zeroes
  zeroes
  zeroes
  zeroes
  zeroes
  zeroes
  zeroes
  zeroes
  zeroes
  zeroes
  zeroes
  zeroes
  zeroes
  zeroes
  zeroes
  zeroes
  zeroes
  zeroes
  zeroes
  zeroes
  zeroes
  zeroes
  zeroes
  zeroes
  zeroes
  zeroes
  zeroes
  zeroes
  zeroes
  zeroes
  zeroes
  zeroes
  zeroes
  zeroes
  zeroes
  zeroes
  zeroes
  zeroes
  zeroes
  zeroes
  zeroes
  zeroes
  zeroes
  zeroes
  zeroes
  zeroes
  zeroes
  zeroes
  zeroes
  zeroes
  zeroes
  zeroes
  zeroes
  zeroes
  zeroes
  zeroes
  zeroes
  zeroes
  zeroes
  zeroes
  zeroes
  zeroes
  zeroes
  zeroes
  zeroes
  zeroes
  zeroes
  zeroes
  zeroes
  zeroes
  zeroes
  zeroes
 CS  symmetry detected

          ------
          auto-z
          ------
  no constraints, skipping    0.0000000000000000     
  no constraints, skipping    0.0000000000000000     


                             Geometry "geometry" -> ""
                             -------------------------

 Output coordinates in angstroms (scale by  1.889725989 to convert to a.u.)

  No.       Tag          Charge          X              Y              Z
 ---- ---------------- ---------- -------------- -------------- --------------
    1 C1                   6.0000     0.00000000     1.40900000     0.00000000
    2 C2                   6.0000     1.22000000     0.70500000     0.00000000
    3 C3                   6.0000     1.22000000    -0.70500000     0.00000000
    4 C4                   6.0000     0.00000000    -1.40900000     0.00000000
    5 C5                   6.0000    -1.22000000    -0.70500000     0.00000000
    6 C6                   6.0000    -1.22000000     0.70500000     0.00000000
    7 H1                   1.0000     0.00000000     2.50800000     0.00000000
    8 H2                   1.0000     2.17200000     1.25400000     0.00000000
    9 H3                   1.0000     2.17200000    -1.25400000     0.00000000
   10 H4                   1.0000     0.00000000    -2.50800000     0.00000000
   11 H5                   1.0000    -2.17200000    -1.25400000     0.00000000
   12 H6                   1.0000    -2.17200000     1.25400000     0.00000000

      Atomic Mass 
      ----------- 

      C1                12.000000
      C2                12.000000
      C3                12.000000
      C4                12.000000
      C5                12.000000
      C6                12.000000
      H1                 1.007825
      H2                 1.007825
      H3                 1.007825
      H4                 1.007825
      H5                 1.007825
      H6                 1.007825


 Effective nuclear repulsion energy (a.u.)     201.3326187108

            Nuclear Dipole moment (a.u.) 
            ----------------------------
        X                 Y               Z
 ---------------- ---------------- ----------------
     0.0000000000     0.0000000000     0.0000000000

      Symmetry information
      --------------------

 Group name             Cs        
 Group number              2
 Group order               2
 No. of unique centers    12

      Symmetry unique atoms

     1    2    3    4    5    6    7    8    9   10   11   12



                                Z-matrix (autoz)
                                -------- 

 Units are Angstrom for bonds and degrees for angles

      Type          Name      I     J     K     L     M      Value
      ----------- --------  ----- ----- ----- ----- ----- ----------
    1 Stretch                  1     2                       1.40855
    2 Stretch                  1     6                       1.40855
    3 Stretch                  1     7                       1.09900
    4 Stretch                  2     3                       1.41000
    5 Stretch                  2     8                       1.09896
    6 Stretch                  3     4                       1.40855
    7 Stretch                  3     9                       1.09896
    8 Stretch                  4     5                       1.40855
    9 Stretch                  4    10                       1.09900
   10 Stretch                  5     6                       1.41000
   11 Stretch                  5    11                       1.09896
   12 Stretch                  6    12                       1.09896
   13 Bend                     1     2     3               119.98706
   14 Bend                     1     2     8               120.04172
   15 Bend                     1     6     5               119.98706
   16 Bend                     1     6    12               120.04172
   17 Bend                     2     1     6               120.02588
   18 Bend                     2     1     7               119.98706
   19 Bend                     2     3     4               119.98706
   20 Bend                     2     3     9               119.97122
   21 Bend                     3     2     8               119.97122
   22 Bend                     3     4     5               120.02588
   23 Bend                     3     4    10               119.98706
   24 Bend                     4     3     9               120.04172
   25 Bend                     4     5     6               119.98706
   26 Bend                     4     5    11               120.04172
   27 Bend                     5     4    10               119.98706
   28 Bend                     5     6    12               119.97122
   29 Bend                     6     1     7               119.98706
   30 Bend                     6     5    11               119.97122
   31 Torsion                  1     2     3     4          -0.00000
   32 Torsion                  1     2     3     9         180.00000
   33 Torsion                  1     6     5     4           0.00000
   34 Torsion                  1     6     5    11         180.00000
   35 Torsion                  2     1     6     5           0.00000
   36 Torsion                  2     1     6    12         180.00000
   37 Torsion                  2     3     4     5           0.00000
   38 Torsion                  2     3     4    10         180.00000
   39 Torsion                  3     2     1     6           0.00000
   40 Torsion                  3     2     1     7         180.00000
   41 Torsion                  3     4     5     6          -0.00000
   42 Torsion                  3     4     5    11         180.00000
   43 Torsion                  4     3     2     8         180.00000
   44 Torsion                  4     5     6    12         180.00000
   45 Torsion                  5     4     3     9         180.00000
   46 Torsion                  5     6     1     7         180.00000
   47 Torsion                  6     1     2     8         180.00000
   48 Torsion                  6     5     4    10         180.00000
   49 Torsion                  7     1     2     8           0.00000
   50 Torsion                  7     1     6    12           0.00000
   51 Torsion                  8     2     3     9           0.00000
   52 Torsion                  9     3     4    10           0.00000
   53 Torsion                 10     4     5    11           0.00000
   54 Torsion                 11     5     6    12           0.00000


            XYZ format geometry
            -------------------
    12
 geometry
 C1                    0.00000000     1.40900000     0.00000000
 C2                    1.22000000     0.70500000     0.00000000
 C3                    1.22000000    -0.70500000     0.00000000
 C4                    0.00000000    -1.40900000     0.00000000
 C5                   -1.22000000    -0.70500000     0.00000000
 C6                   -1.22000000     0.70500000     0.00000000
 H1                    0.00000000     2.50800000     0.00000000
 H2                    2.17200000     1.25400000     0.00000000
 H3                    2.17200000    -1.25400000     0.00000000
 H4                    0.00000000    -2.50800000     0.00000000
 H5                   -2.17200000    -1.25400000     0.00000000
 H6                   -2.17200000     1.25400000     0.00000000

 ==============================================================================
                                internuclear distances
 ------------------------------------------------------------------------------
       center one      |      center two      | atomic units |  angstroms
 ------------------------------------------------------------------------------
    2 C2               |   1 C1               |     2.66178  |     1.40855
    3 C3               |   2 C2               |     2.66451  |     1.41000
    4 C4               |   3 C3               |     2.66178  |     1.40855
    5 C5               |   4 C4               |     2.66178  |     1.40855
    6 C6               |   1 C1               |     2.66178  |     1.40855
    6 C6               |   5 C5               |     2.66451  |     1.41000
    7 H1               |   1 C1               |     2.07681  |     1.09900
    8 H2               |   2 C2               |     2.07673  |     1.09896
    9 H3               |   3 C3               |     2.07673  |     1.09896
   10 H4               |   4 C4               |     2.07681  |     1.09900
   11 H5               |   5 C5               |     2.07673  |     1.09896
   12 H6               |   6 C6               |     2.07673  |     1.09896
 ------------------------------------------------------------------------------
                         number of included internuclear distances:         12
 ==============================================================================



 ==============================================================================
                                 internuclear angles
 ------------------------------------------------------------------------------
        center 1       |       center 2       |       center 3       |  degrees
 ------------------------------------------------------------------------------
    2 C2               |   1 C1               |   6 C6               |   120.03
    2 C2               |   1 C1               |   7 H1               |   119.99
    6 C6               |   1 C1               |   7 H1               |   119.99
    1 C1               |   2 C2               |   3 C3               |   119.99
    1 C1               |   2 C2               |   8 H2               |   120.04
    3 C3               |   2 C2               |   8 H2               |   119.97
    2 C2               |   3 C3               |   4 C4               |   119.99
    2 C2               |   3 C3               |   9 H3               |   119.97
    4 C4               |   3 C3               |   9 H3               |   120.04
    3 C3               |   4 C4               |   5 C5               |   120.03
    3 C3               |   4 C4               |  10 H4               |   119.99
    5 C5               |   4 C4               |  10 H4               |   119.99
    4 C4               |   5 C5               |   6 C6               |   119.99
    4 C4               |   5 C5               |  11 H5               |   120.04
    6 C6               |   5 C5               |  11 H5               |   119.97
    1 C1               |   6 C6               |   5 C5               |   119.99
    1 C1               |   6 C6               |  12 H6               |   120.04
    5 C5               |   6 C6               |  12 H6               |   119.97
 ------------------------------------------------------------------------------
                            number of included internuclear angles:         18
 ==============================================================================



                      Basis "ao basis" -> "" (cartesian)
                      -----
  C (Carbon)
  ----------
            Exponent  Coefficients 
       -------------- ---------------------------------------------------------
  1 S  7.16168370E+01  0.154329
  1 S  1.30450960E+01  0.535328
  1 S  3.53051220E+00  0.444635

  2 S  2.94124940E+00 -0.099967
  2 S  6.83483100E-01  0.399513
  2 S  2.22289900E-01  0.700115

  3 P  2.94124940E+00  0.155916
  3 P  6.83483100E-01  0.607684
  3 P  2.22289900E-01  0.391957

  H (Hydrogen)
  ------------
            Exponent  Coefficients 
       -------------- ---------------------------------------------------------
  1 S  3.42525091E+00  0.154329
  1 S  6.23913730E-01  0.535328
  1 S  1.68855400E-01  0.444635



 Summary of "ao basis" -> "" (cartesian)
 ------------------------------------------------------------------------------
       Tag                 Description            Shells   Functions and Types
 ---------------- ------------------------------  ------  ---------------------
 C                           sto-3g                  3        5   2s1p
 H                           sto-3g                  1        1   1s



                                 NWChem DFT Module
                                 -----------------



  Caching 1-el integrals 
  WARNING: movecs_in_org=atomic not equal to movecs_in=./benzene.movecs
   Time after variat. SCF:      0.2
   Time prior to 1st pass:      0.2

           Memory utilization after 1st SCF pass: 
           Heap Space remaining (MW):       63.98            63979884
          Stack Space remaining (MW):       65.54            65535500

   convergence    iter        energy       DeltaE   RMS-Dens  Diis-err    time
 ---------------- ----- ----------------- --------- --------- ---------  ------
 d= 0,ls=0.0,diis     1   -229.3764508420 -4.31D+02  1.74D-02  2.23D-01     1.2
 d= 0,ls=0.0,diis     2   -229.4070889374 -3.06D-02  3.22D-03  4.14D-03     1.5
 d= 0,ls=0.0,diis     3   -229.4076540998 -5.65D-04  1.10D-03  1.19D-03     1.9
 d= 0,ls=0.0,diis     4   -229.4078766439 -2.23D-04  2.97D-05  5.99D-07     2.3
 d= 0,ls=0.0,diis     5   -229.4078767590 -1.15D-07  2.54D-06  8.74D-09     2.6


         Total DFT energy =     -229.407876759015
      One electron energy =     -707.969740433917
           Coulomb energy =      311.942636632248
    Exchange-Corr. energy =      -34.713391668176
 Nuclear repulsion energy =      201.332618710829

 Numeric. integr. density =       41.999972887803

     Total iterative time =      2.4s



                  Occupations of the irreducible representations
                  ----------------------------------------------

                     irrep           alpha         beta
                     --------     --------     --------
                     a'               18.0         18.0
                     a"                3.0          3.0


 Task  times  cpu:        2.4s     wall:        2.6s
 Summary of allocated global arrays
-----------------------------------
  No active global arrays


MA_summarize_allocated_blocks: starting scan ...
MA_summarize_allocated_blocks: scan completed: 0 heap blocks, 0 stack blocks
MA usage statistics:

	allocation statistics:
					      heap	     stack
					      ----	     -----
	current number of blocks	         0	         0
	maximum number of blocks	        22	        57
	current total bytes		         0	         0
	maximum total bytes		  12448808	  22512872
	maximum total K-bytes		     12449	     22513
	maximum total M-bytes		        13	        23


                                NWChem Input Module
                                -------------------




                                     CITATION
                                     --------
                Please cite the following reference when publishing
                           results obtained with NWChem:

          E. Apra, E. J. Bylaska, W. A. de Jong, N. Govind, K. Kowalski,
       T. P. Straatsma, M. Valiev, H. J. J. van Dam, Y. Alexeev, J. Anchell,
       V. Anisimov, F. W. Aquino, R. Atta-Fynn, J. Autschbach, N. P. Bauman,
     J. C. Becca, D. E. Bernholdt, K. Bhaskaran-Nair, S. Bogatko, P. Borowski,
         J. Boschen, J. Brabec, A. Bruner, E. Cauet, Y. Chen, G. N. Chuev,
      C. J. Cramer, J. Daily, M. J. O. Deegan, T. H. Dunning Jr., M. Dupuis,
   K. G. Dyall, G. I. Fann, S. A. Fischer, A. Fonari, H. Fruchtl, L. Gagliardi,
      J. Garza, N. Gawande, S. Ghosh, K. Glaesemann, A. W. Gotz, J. Hammond,
       V. Helms, E. D. Hermes, K. Hirao, S. Hirata, M. Jacquelin, L. Jensen,
   B. G. Johnson, H. Jonsson, R. A. Kendall, M. Klemm, R. Kobayashi, V. Konkov,
      S. Krishnamoorthy, M. Krishnan, Z. Lin, R. D. Lins, R. J. Littlefield,
      A. J. Logsdail, K. Lopata, W. Ma, A. V. Marenich, J. Martin del Campo,
   D. Mejia-Rodriguez, J. E. Moore, J. M. Mullin, T. Nakajima, D. R. Nascimento,
    J. A. Nichols, P. J. Nichols, J. Nieplocha, A. Otero-de-la-Roza, B. Palmer,
    A. Panyala, T. Pirojsirikul, B. Peng, R. Peverati, J. Pittner, L. Pollack,
   R. M. Richard, P. Sadayappan, G. C. Schatz, W. A. Shelton, D. W. Silverstein,
   D. M. A. Smith, T. A. Soares, D. Song, M. Swart, H. L. Taylor, G. S. Thomas,
            V. Tipparaju, D. G. Truhlar, K. Tsemekhman, T. Van Voorhis,
      A. Vazquez-Mayagoitia, P. Verma, O. Villa, A. Vishnu, K. D. Vogiatzis,
        D. Wang, J. H. Weare, M. J. Williamson, T. L. Windus, K. Wolinski,
        A. T. Wong, Q. Wu, C. Yang, Q. Yu, M. Zacharias, Z. Zhang, Y. Zhao,
                                and R. J. Harrison
                        "NWChem: Past, present, and future
                         J. Chem. Phys. 152, 184102 (2020)
                               doi:10.1063/5.0004997

                                      AUTHORS
                                      -------
  E. Apra, E. J. Bylaska, N. Govind, K. Kowalski, M. Valiev, D. Mejia-Rodriguez,
       A. Kunitsa, N. P. Bauman, A. Panyala, W. A. de Jong, T. P. Straatsma,
   H. J. J. van Dam, D. Wang, T. L. Windus, J. Hammond, J. Autschbach, A. Woods,
    K. Bhaskaran-Nair, J. Brabec, K. Lopata, S. A. Fischer, S. Krishnamoorthy,
     M. Jacquelin, W. Ma, M. Klemm, O. Villa, Y. Chen, V. Anisimov, F. Aquino,
     S. Hirata, M. T. Hackler, E. Hermes, L. Jensen, J. E. Moore, J. C. Becca,
      V. Konjkov, T. Risthaus, M. Malagoli, A. Marenich, A. Otero-de-la-Roza,
        J. Mullin, P. Nichols, R. Peverati, J. Pittner, Y. Zhao, P.-D. Fan,
        A. Fonari, M. J. Williamson, R. J. Harrison, J. R. Rehr, M. Dupuis,
     D. Silverstein, D. M. A. Smith, J. Nieplocha, V. Tipparaju, M. Krishnan,
     B. E. Van Kuiken, A. Vazquez-Mayagoitia, M. Swart, Q. Wu, T. Van Voorhis,
     A. A. Auer, M. Nooijen, L. D. Crosby, E. Brown, G. Cisneros, G. I. Fann,
   H. Fruchtl, J. Garza, K. Hirao, R. A. Kendall, J. A. Nichols, K. Tsemekhman,
    K. Wolinski, J. Anchell, D. E. Bernholdt, P. Borowski, T. Clark, D. Clerc,
   H. Dachsel, M. J. O. Deegan, K. Dyall, D. Elwood, E. Glendening, M. Gutowski,
   A. C. Hess, J. Jaffe, B. G. Johnson, J. Ju, R. Kobayashi, R. Kutteh, Z. Lin,
   R. Littlefield, X. Long, B. Meng, T. Nakajima, S. Niu, L. Pollack, M. Rosing,
   K. Glaesemann, G. Sandrone, M. Stave, H. Taylor, G. Thomas, J. H. van Lenthe,
                               A. T. Wong, Z. Zhang.

 Total times  cpu:        2.4s     wall:        2.7s
