

     ************************************************************************
     *************** Dalton - An Electronic Structure Program ***************
     ************************************************************************

    This is output from DALTON release Dalton2025.0-dev (2025)
         ( Web site: http://daltonprogram.org )

   ----------------------------------------------------------------------------

    NOTE:
     
    Dalton is an experimental code for the evaluation of molecular
    properties using (MC)SCF, DFT, CI, and CC wave functions.
    The authors accept no responsibility for the performance of
    the code or for the correctness of the results.
     
    The code (in whole or part) is provided under a licence and
    is not to be reproduced for further distribution without
    the written permission of the authors or their representatives.
     
    See the home page "http://daltonprogram.org" for further information.
     
    If results obtained with this code are published,
    the appropriate citations would be both of:
     
       K. Aidas, C. Angeli, K. L. Bak, V. Bakken,
       R. Bast, L. Boman, O. Christiansen, R. Cimiraglia,
       S. Coriani, P. Dahle, E. K. Dalskov, U. Ekstroem,
       T. Enevoldsen, J. J. Eriksen, P. Ettenhuber, B. Fernandez,
       L. Ferrighi, H. Fliegl, L. Frediani, K. Hald, A. Halkier,
       C. Haettig, H. Heiberg, T. Helgaker, A. C. Hennum,
       H. Hettema, E. Hjertenaes, S. Hoest, I.-M. Hoeyvik,
       M. F. Iozzi, B. Jansik, H. J. Aa. Jensen, D. Jonsson,
       P. Joergensen, J. Kauczor, S. Kirpekar,
       T. Kjaergaard, W. Klopper, S. Knecht, R. Kobayashi, H. Koch,
       J. Kongsted, A. Krapp, K. Kristensen, A. Ligabue,
       O. B. Lutnaes, J. I. Melo, K. V. Mikkelsen, R. H. Myhre,
       C. Neiss, C. B. Nielsen, P. Norman, J. Olsen,
       J. M. H. Olsen, A. Osted, M. J. Packer, F. Pawlowski,
       T. B. Pedersen, P. F. Provasi, S. Reine, Z. Rinkevicius,
       T. A. Ruden, K. Ruud, V. Rybkin, P. Salek, C. C. M. Samson,
       A. Sanchez de Meras, T. Saue, S. P. A. Sauer,
       B. Schimmelpfennig, K. Sneskov, A. H. Steindal,
       K. O. Sylvester-Hvid, P. R. Taylor, A. M. Teale,
       E. I. Tellgren, D. P. Tew, A. J. Thorvaldsen, L. Thoegersen,
       O. Vahtras, M. A. Watson, D. J. D. Wilson, M. Ziolkowski
       and H. Agren,
       "The Dalton quantum chemistry program system",
       WIREs Comput. Mol. Sci. 2014, 4:269-284 (doi: 10.1002/wcms.1172)
     
    and
     
       Dalton, a molecular electronic structure program,
       Release Dalton2025.0-dev (2025), see http://daltonprogram.org
   ----------------------------------------------------------------------------

    Authors in alphabetical order (Major contribution(s) in parenthesis):

  Kestutis Aidas,              Vilnius University,        Lithuania   (QM/MM)
  Celestino Angeli,            University of Ferrara,     Italy       (NEVPT2)
  Juan J. Aucar,               Northeast National UniversiArgentina   (LRESC, Relativistic Effects on NMR Shieldings and EFG)
  Keld L. Bak,                 UNI-C,                     Denmark     (AOSOPPA, non-adiabatic coupling, magnetic properties)
  Vebjoern Bakken,             University of Oslo,        Norway      (DALTON; geometry optimizer, symmetry detection)
  Radovan Bast,                UiT The Arctic U. of NorwayNorway      (DALTON installation and execution frameworks)
  Pablo Baudin,                University of Valencia,    Spain       (Cholesky excitation energies)
  Linus Boman,                 NTNU,                      Norway      (Cholesky decomposition and subsystems)
  Bruno N. Cabral Tenorio,     Technical Univ. of Denmark,Denmark     (Lanczos-based CC methods)
  Ove Christiansen,            Aarhus University,         Denmark     (CC module)
  Renzo Cimiraglia,            University of Ferrara,     Italy       (NEVPT2)
  Sonia Coriani,               Technical Univ. of Denmark,Denmark     (CC and RESPONS modules)
  Janusz Cukras,               University of Warsaw,      Poland      (MChD in RESPONS)
  Paal Dahle,                  University of Oslo,        Norway      (Parallelization)
  Erik K. Dalskov,             UNI-C,                     Denmark     (SOPPA)
  Thomas Enevoldsen,           Univ. of Southern Denmark, Denmark     (SOPPA)
  Janus J. Eriksen,            Aarhus University,         Denmark     (Polarizable embedding, TDA)
  Rasmus Faber,                Technical Univ. of Denmark,Denmark     (Vib.avg. NMR w. SOPPA, parallel AO-SOPPA, CVS-CC and EOMCC)
  Tobias Fahleson,             KTH Stockholm,             Sweden      (Damped cubic response)
  Berta Fernandez,             U. of Santiago de CompostelSpain       (Doublet spin, ESR in RESPONS)
  Lara Ferrighi,               Aarhus University,         Denmark     (PCM Cubic response)
  Heike Fliegl,                University of Oslo,        Norway      (CCSD(R12))
  Luca Frediani,               UiT The Arctic U. of NorwayNorway      (PCM)
  Emmanuel Fromager,           Univ. Strasbourg,          France      (MC-srDFT)
  Bin Gao,                     UiT The Arctic U. of NorwayNorway      (Gen1Int library)
  Andre S. P. Gomes,           CNRS/Universite de Lille,  France      (Frozen density embedding)
  Christof Haettig,            Ruhr-University Bochum,    Germany     (CC module)
  Kasper Hald,                 Aarhus University,         Denmark     (CC module)
  Asger Halkier,               Aarhus University,         Denmark     (CC module)
  Frederik Beyer Hansen,       University of Copenhagen,  Denmark     (Parallel AO-SOPPA)
  Erik D. Hedegaard,           Univ. of Southern Denmark, Denmark     (Polarizable embedding, QM/MM, and MC-srDFT)
  Hanne Heiberg,               University of Oslo,        Norway      (Geometry analysis, selected one-electron integrals)
  Trygve Helgaker,             University of Oslo,        Norway      (DALTON; ABACUS, ERI, DFT modules, London, and much more)
  Alf Christian Hennum,        University of Oslo,        Norway      (Parity violation)
  Hinne Hettema,               University of Auckland,    New Zealand (Quadratic response in RESPONS; SIRIUS supersymmetry)
  Andreas E. Hillers-Bendtsen, University of Copenhagen,  Denmark     (MP3)
  Eirik Hjertenaes,            NTNU,                      Norway      (Cholesky decomposition)
  Nicolai Machholdt Hoeyer,    Aarhus University,         Denmark     (MP3)
  Pi A. B. Haase,              University of Copenhagen,  Denmark     (Triplet AO-SOPPA)
  Maria Francesca Iozzi,       University of Oslo,        Norway      (RPA)
  Christoph Jacob,             TU Braunschweig            Germany     (Frozen density embedding)
  Brano Jansik,                Technical Univ. of Ostrava Czech Rep.  (DFT cubic response)
  Hans Joergen Aa. Jensen,     Univ. of Southern Denmark, Denmark     (DALTON; SIRIUS, RESPONS, ABACUS, MC-srDFT, and much more)
  Dan Jonsson,                 UiT The Arctic U. of NorwayNorway      (Cubic response in RESPONS module)
  Poul Joergensen,             Aarhus University,         Denmark     (RESPONS, ABACUS, and CC modules)
  Maciej Kaminski,             University of Warsaw,      Poland      (CPPh in RESPONS)
  Joanna Kauczor,              Linkoeping University,     Sweden      (Complex polarization propagator (CPP) module)
  Sheela Kirpekar,             Univ. of Southern Denmark, Denmark     (Mass-velocity & Darwin integrals)
  Frederik Oersted Kjeldal,    Technical Univ. of Denmark,Denmark     (MP3)
  Erik Kjellgren,              Univ. of Southern Denmark, Denmark     (MC-srDFT)
  Wim Klopper,                 KIT Karlsruhe,             Germany     (R12 code in CC, SIRIUS, and ABACUS modules)
  Stefan Knecht,               ETH Zurich,                Switzerland (Parallel CI and MCSCF, MC-srDFT)
  Rika Kobayashi,              Australian National Univ., Australia   (DIIS in CC, London in MCSCF)
  Henrik Koch,                 NTNU,                      Norway      (CC module, Cholesky decomposition)
  Jacob Kongsted,              Univ. of Southern Denmark, Denmark     (Polarizable embedding, polarizable density embedding, QM/MM)
  Andrea Ligabue,              University of Modena,      Italy       (CTOCD, AOSOPPA)
  Nanna H. List,               Univ. of Southern Denmark, Denmark     (Polarizable embedding)
  Ola B. Lutnaes,              University of Oslo,        Norway      (DFT Hessian)
  Juan I. Melo,                University of Buenos Aires,Argentina   (LRESC, Relativistic Effects on NMR Shieldings)
  Kurt V. Mikkelsen,           University of Copenhagen,  Denmark     (MC-SCRF, QM/MM, and MP3)
  Rolf H. Myhre,               NTNU,                      Norway      (Subsystems and CC3)
  Christian Neiss,             Univ. Erlangen-Nuernberg,  Germany     (CCSD(R12))
  Christian B. Nielsen,        University of Copenhagen,  Denmark     (QM/MM)
  Patrick Norman,              KTH Stockholm,             Sweden      (Cubic response and complex frequency response in RESPONS)
  Jeppe Olsen,                 Aarhus University,         Denmark     (SIRIUS CI/density modules)
  Jogvan Magnus H. Olsen,      Aarhus University,         Denmark     (Polarizable embedding and polarizable density embedding)
  Anders Osted,                Copenhagen University,     Denmark     (QM/MM)
  Martin J. Packer,            University of Sheffield,   UK          (SOPPA)
  Filip Pawlowski,             Kazimierz Wielki UniversityPoland      (CC3)
  Morten N. Pedersen,          Univ. of Southern Denmark, Denmark     (Polarizable embedding)
  Thomas B. Pedersen,          University of Oslo,        Norway      (Cholesky decomposition)
  Patricio F. Provasi,         University of Northeastern,Argentina   (Analysis of coupling constants in localized orbitals)
  Peter Reinholdt,             Univ. of Southern Denmark, Denmark     (Polarizable embedding and polarizable density embedding)
  Zilvinas Rinkevicius,        KTH Stockholm,             Sweden      (open-shell DFT, ESR)
  Elias Rudberg,               KTH Stockholm,             Sweden      (DFT grid and basis info)
  Torgeir A. Ruden,            University of Oslo,        Norway      (Numerical derivatives in ABACUS)
  Kenneth Ruud,                UiT The Arctic U. of NorwayNorway      (DALTON; ABACUS magnetic properties and much more)
  Pawel Salek,                 KTH Stockholm,             Sweden      (DALTON; DFT code)
  Claire C. M. Samson,         University of Karlsruhe    Germany     (Boys localization, r12 integrals in ERI)
  Alfredo Sanchez de Meras,    University of Valencia,    Spain       (CC module, Cholesky decomposition)
  Trond Saue,                  Paul Sabatier University,  France      (direct Fock matrix construction)
  Stephan P. A. Sauer,         University of Copenhagen,  Denmark     (SOPPA(CCSD), SOPPA prop., AOSOPPA, vibrational g-factors)
  Bernd Schimmelpfennig,       Forschungszentrum KarlsruheGermany     (AMFI module)
  Anna K. Schnack-Petersen,    University of Copenhagen,  Denmark     (RPA(D) and HRPA(D) properties in AOSOPPA)
  Kristian Sneskov,            Aarhus University,         Denmark     (Polarizable embedding, QM/MM)
  Arnfinn H. Steindal,         UiT The Arctic U. of NorwayNorway      (parallel QM/MM, polarizable embedding)
  Casper Steinmann,            Aalborg University,        Denmark     (QFIT, polarizable embedding)
  K. O. Sylvester-Hvid,        University of Copenhagen,  Denmark     (MC-SCRF)
  Peter R. Taylor,             VLSCI/Univ. of Melbourne,  Australia   (Symmetry handling ABACUS, integral transformation)
  Andrew M. Teale,             University of Nottingham,  England     (DFT-AC, DFT-D)
  David P. Tew,                University of Bristol,     England     (CCSD(R12))
  Julien Toulouse,             Sorbonne Univ.,            France      (MC-srDFT)
  Olav Vahtras,                KTH Stockholm,             Sweden      (Triplet response, spin-orbit, ESR, TDDFT, open-shell DFT)
  Lucas Visscher,              Vrije Universiteit AmsterdaNetherlands (Frozen density embedding)
  David J. Wilson,             La Trobe University,       Australia   (DFT Hessian and DFT magnetizabilities)
  Luna Zamok,                  University of Copenhagen,  Denmark     (Block Lanczos RPA solver in SOPPA module)
  Hans Agren,                  KTH Stockholm,             Sweden      (SIRIUS module, RESPONS, MC-SCRF solvation)
 --------------------------------------------------------------------------------

     Date and time (Linux)  : Mon May  4 22:00:44 2026
     Host name              : debian                                  

 * Work memory size             :    64000000 =  488.28 megabytes.

 * Directories for basis set searches:
   1) /home/vdwv/DIPLOM_ITMO/CALCULATIONS_AND_SOFTS/softwares/Dalton_Shenanigans/dalton/dalton/build
   2) /home/vdwv/DIPLOM_ITMO/CALCULATIONS_AND_SOFTS/softwares/Dalton_Shenanigans/dalton/dalton/build/basis


Compilation information
-----------------------

 Who compiled             | vdwv
 Host                     | debian
 System                   | Linux-6.12.73+deb13-amd64
 CMake generator          | Unix Makefiles
 Processor                | x86_64
 64-bit integers          | OFF
 MPI                      | OFF
 Fortran compiler         | /usr/bin/gfortran
 Fortran compiler version | GNU Fortran (Debian 14.2.0-19) 14.2.0
 C compiler               | /usr/bin/gcc
 C compiler version       | gcc (Debian 14.2.0-19) 14.2.0
 C++ compiler             | /usr/bin/g++
 C++ compiler version     | g++ (Debian 14.2.0-19) 14.2.0
 BLAS                     | /opt/intel/oneapi/mkl/2025.3/lib/intel64/libmkl_gf
                          | _lp64.so;/opt/intel/oneapi/mkl/2025.3/lib/intel64/
                          | libmkl_sequential.so;/opt/intel/oneapi/mkl/2025.3/
                          | lib/intel64/libmkl_core.so;/usr/lib/x86_64-linux-g
                          | nu/libpthread.a;/usr/lib/x86_64-linux-gnu/libm.so
 LAPACK                   | /opt/intel/oneapi/mkl/2025.3/lib/intel64/libmkl_la
                          | pack95_lp64.a;/opt/intel/oneapi/mkl/2025.3/lib/int
                          | el64/libmkl_gf_lp64.so
 Static linking           | OFF
 Last Git revision        | 1892235f9264b9be21ec2fefe6e0081d659ab244
 Git branch               | master
 Configuration time       | 2026-05-04 17:50:26.788788

 * Sequential calculation.


   Content of the .dal input file
 ----------------------------------

BASIS
6-31G
Benzene C6H6 using the 6-31G basis
Using automatic symmetry detection
AtomTypes=2 Angstrom
Charge=6.0 Atoms=6
C1    0.000      1.388      0.000
C2    1.202      0.694      0.000
C3    1.202     -0.694      0.000
C4    0.000     -1.388      0.000
C5   -1.202     -0.694      0.000
C6   -1.202      0.694      0.000
Charge=1.0 Atoms=6
H7    0.000      2.462      0.000
H8    2.132      1.231      0.000
H9    2.132     -1.231      0.000
H10   0.000     -2.462      0.000
H11  -2.132     -1.231      0.000
H12  -2.132      1.231      0.000

**DALTON INPUT
.RUN WAVE FUN
**WAVE FUN
.HF
**END OF


       *******************************************************************
       *********** Output from DALTON general input processing ***********
       *******************************************************************

 --------------------------------------------------------------------------------
   Overall default print level:    0
   Print level for DALTON.STAT:    1

    HERMIT 1- and 2-electron integral sections will be executed
    "Old" integral transformation used (limited to max 255 basis functions)
    Wave function sections will be executed (SIRIUS module)
 --------------------------------------------------------------------------------


   ****************************************************************************
   *************** Output of molecule and basis set information ***************
   ****************************************************************************


    The two title cards from your ".mol" input:
    --------------------------------------------------------------------------------
 1: Benzene C6H6 using the 6-31G basis
 2: Using automatic symmetry detection
    --------------------------------------------------------------------------------

  Coordinates are entered in Angstrom and converted to atomic units.
          - Conversion factor : 1 bohr = 0.52917721080 A

  Atomic type no.    1
  --------------------
  Nuclear charge:   6.00000
  Number of symmetry independent centers:    6
  Number of basis sets to read;    2
  Basis set file used for this atomic type with Z =   6 :
     "/home/vdwv/DIPLOM_ITMO/CALCULATIONS_AND_SOFTS/softwares/Dalton_Shenanigans/dalton/dalton/build/basis/6-31G"

  Info about the basis set file: your basis has no documentation.
  Basis set: 6-31G                                                                           

  Atomic type no.    2
  --------------------
  Nuclear charge:   1.00000
  Number of symmetry independent centers:    6
  Number of basis sets to read;    2
  Basis set file used for this atomic type with Z =   1 :
     "/home/vdwv/DIPLOM_ITMO/CALCULATIONS_AND_SOFTS/softwares/Dalton_Shenanigans/dalton/dalton/build/basis/6-31G"

  Info about the basis set file: your basis has no documentation.
  Basis set: 6-31G                                                                           


                      SYMADD: Addition of symmetry requested
                      --------------------------------------

 Symmetry test threshold:  5.00E-06

@  The molecule has been centered at center of mass and rotated
@  so the principal axes of inertia are along coordinate axes.

 Symmetry class found: D(2h)          

 Symmetry Independent Centres             
 ----------------------------
C2     6 :      0.00000000     2.27145080     1.31146993  Isotope  1
C1     6 :      0.00000000     0.00000000     2.62293986  Isotope  1
H8     1 :      0.00000000     4.02889610     2.32625286  Isotope  1
H7     1 :      0.00000000     0.00000000     4.65250572  Isotope  1

 The following symmetry elements were found:   X  Y  Z  


                         SYMGRP: Point group information
                         -------------------------------

@    Full point group is: D(2h)          
@    Represented as:      D2h

@  * The irrep name for each symmetry:    1: Ag     2: B3u    3: B2u    4: B1g    5: B1u    6: B2g    7: B3g    8: Au 


   * The point group was generated by:

      Reflection in the yz-plane
      Reflection in the xz-plane
      Reflection in the xy-plane

   * Group multiplication table

        |  E   C2z  C2y  C2x   i   Oxy  Oxz  Oyz
   -----+----------------------------------------
     E  |  E   C2z  C2y  C2x   i   Oxy  Oxz  Oyz
    C2z | C2z   E   C2x  C2y  Oxy   i   Oyz  Oxz
    C2y | C2y  C2x   E   C2z  Oxz  Oyz   i   Oxy
    C2x | C2x  C2y  C2z   E   Oyz  Oxz  Oxy   i 
     i  |  i   Oxy  Oxz  Oyz   E   C2z  C2y  C2x
    Oxy | Oxy   i   Oyz  Oxz  C2z   E   C2x  C2y
    Oxz | Oxz  Oyz   i   Oxy  C2y  C2x   E   C2z
    Oyz | Oyz  Oxz  Oxy   i   C2x  C2y  C2z   E 

   * Character table

        |  E   C2z  C2y  C2x   i   Oxy  Oxz  Oyz
   -----+----------------------------------------
    Ag  |   1    1    1    1    1    1    1    1
    B3u |   1   -1   -1    1   -1    1    1   -1
    B2u |   1   -1    1   -1   -1    1   -1    1
    B1g |   1    1   -1   -1    1    1   -1   -1
    B1u |   1    1   -1   -1   -1   -1    1    1
    B2g |   1   -1    1   -1    1   -1    1   -1
    B3g |   1   -1   -1    1    1   -1   -1    1
    Au  |   1    1    1    1   -1   -1   -1   -1

   * Direct product table

        | Ag   B3u  B2u  B1g  B1u  B2g  B3g  Au 
   -----+----------------------------------------
    Ag  | Ag   B3u  B2u  B1g  B1u  B2g  B3g  Au 
    B3u | B3u  Ag   B1g  B2u  B2g  B1u  Au   B3g
    B2u | B2u  B1g  Ag   B3u  B3g  Au   B1u  B2g
    B1g | B1g  B2u  B3u  Ag   Au   B3g  B2g  B1u
    B1u | B1u  B2g  B3g  Au   Ag   B3u  B2u  B1g
    B2g | B2g  B1u  Au   B3g  B3u  Ag   B1g  B2u
    B3g | B3g  Au   B1u  B2g  B2u  B1g  Ag   B3u
    Au  | Au   B3g  B2g  B1u  B1g  B2u  B3u  Ag 


                                 Isotopic Masses
                                 ---------------

                           C1  _1     12.000000
                           C1  _2     12.000000
                           C2  _1     12.000000
                           C2  _2     12.000000
                           C2  _3     12.000000
                           C2  _4     12.000000
                           H7  _1      1.007825
                           H7  _2      1.007825
                           H8  _1      1.007825
                           H8  _2      1.007825
                           H8  _3      1.007825
                           H8  _4      1.007825

                       Total mass:    78.046950 amu
                       Natural abundance:  93.495 %

 Center-of-mass coordinates (a.u.):    0.000000    0.000000    0.000000
 Center-of-mass coordinates (Angs):    0.000000    0.000000    0.000000


  Atoms and basis sets
  --------------------

  Number of atom types :    2
  Total number of atoms:   12

  Basis set used is "6-31G" from the basis set library.

  label    atoms   charge   prim   cont     basis
  ----------------------------------------------------------------------
  C2          6    6.0000    22     9      [10s4p|3s2p]                                       
  H8          6    1.0000     4     2      [4s|2s]                                            
  ----------------------------------------------------------------------
  total:     12   42.0000   156    66
  ----------------------------------------------------------------------

  Threshold for neglecting AO integrals:  1.00D-12


  Cartesian Coordinates (bohr)
  ----------------------------

  Total number of coordinates:   36
  C1  / 1 :     1  x   0.0000000000    2  y   0.0000000000    3  z   2.6229398615
  C1  / 2 :     4  x   0.0000000000    5  y   0.0000000000    6  z  -2.6229398615
  C2  / 1 :     7  x   0.0000000000    8  y   2.2714508022    9  z   1.3114699307
  C2  / 2 :    10  x   0.0000000000   11  y  -2.2714508022   12  z   1.3114699307
  C2  / 3 :    13  x   0.0000000000   14  y   2.2714508022   15  z  -1.3114699307
  C2  / 4 :    16  x   0.0000000000   17  y  -2.2714508022   18  z  -1.3114699307
  H7  / 1 :    19  x   0.0000000000   20  y   0.0000000000   21  z   4.6525057197
  H7  / 2 :    22  x   0.0000000000   23  y   0.0000000000   24  z  -4.6525057197
  H8  / 1 :    25  x   0.0000000000   26  y   4.0288960985   27  z   2.3262528599
  H8  / 2 :    28  x   0.0000000000   29  y  -4.0288960985   30  z   2.3262528599
  H8  / 3 :    31  x   0.0000000000   32  y   4.0288960985   33  z  -2.3262528599
  H8  / 4 :    34  x   0.0000000000   35  y  -4.0288960985   36  z  -2.3262528599


  Cartesian Coordinates (xyz format; angstrom)
  --------------------------------------------

   12

  C        0.0000000000            0.0000000000            1.3880000000
  C        0.0000000000            0.0000000000           -1.3880000000
  C        0.0000000000            1.2020000000            0.6940000000
  C        0.0000000000           -1.2020000000            0.6940000000
  C        0.0000000000            1.2020000000           -0.6940000000
  C        0.0000000000           -1.2020000000           -0.6940000000
  H        0.0000000000            0.0000000000            2.4620000000
  H        0.0000000000            0.0000000000           -2.4620000000
  H        0.0000000000            2.1320000000            1.2310000000
  H        0.0000000000           -2.1320000000            1.2310000000
  H        0.0000000000            2.1320000000           -1.2310000000
  H        0.0000000000           -2.1320000000           -1.2310000000


  Symmetry Coordinates
  --------------------

  Number of coordinates in each symmetry:     6    4    6    2    6    4    6    2

  Symmetry  Ag  ( 1)

    1   C1    z    [  3  -    6 ]/2
    2   C2    y    [  8  -   11  +   14  -   17 ]/4
    3   C2    z    [  9  +   12  -   15  -   18 ]/4
    4   H7    z    [ 21  -   24 ]/2
    5   H8    y    [ 26  -   29  +   32  -   35 ]/4
    6   H8    z    [ 27  +   30  -   33  -   36 ]/4

  Symmetry  B3u ( 2)

    7   C1    x    [  1  +    4 ]/2
    8   C2    x    [  7  +   10  +   13  +   16 ]/4
    9   H7    x    [ 19  +   22 ]/2
   10   H8    x    [ 25  +   28  +   31  +   34 ]/4

  Symmetry  B2u ( 3)

   11   C1    y    [  2  +    5 ]/2
   12   C2    y    [  8  +   11  +   14  +   17 ]/4
   13   C2    z    [  9  -   12  -   15  +   18 ]/4
   14   H7    y    [ 20  +   23 ]/2
   15   H8    y    [ 26  +   29  +   32  +   35 ]/4
   16   H8    z    [ 27  -   30  -   33  +   36 ]/4

  Symmetry  B1g ( 4)

   17   C2    x    [  7  -   10  +   13  -   16 ]/4
   18   H8    x    [ 25  -   28  +   31  -   34 ]/4

  Symmetry  B1u ( 5)

   19   C1    z    [  3  +    6 ]/2
   20   C2    y    [  8  -   11  -   14  +   17 ]/4
   21   C2    z    [  9  +   12  +   15  +   18 ]/4
   22   H7    z    [ 21  +   24 ]/2
   23   H8    y    [ 26  -   29  -   32  +   35 ]/4
   24   H8    z    [ 27  +   30  +   33  +   36 ]/4

  Symmetry  B2g ( 6)

   25   C1    x    [  1  -    4 ]/2
   26   C2    x    [  7  +   10  -   13  -   16 ]/4
   27   H7    x    [ 19  -   22 ]/2
   28   H8    x    [ 25  +   28  -   31  -   34 ]/4

  Symmetry  B3g ( 7)

   29   C1    y    [  2  -    5 ]/2
   30   C2    y    [  8  +   11  -   14  -   17 ]/4
   31   C2    z    [  9  -   12  +   15  -   18 ]/4
   32   H7    y    [ 20  -   23 ]/2
   33   H8    y    [ 26  +   29  -   32  -   35 ]/4
   34   H8    z    [ 27  -   30  +   33  -   36 ]/4

  Symmetry  Au  ( 8)

   35   C2    x    [  7  -   10  -   13  +   16 ]/4
   36   H8    x    [ 25  -   28  -   31  +   34 ]/4


   Interatomic separations (in Angstrom):
   --------------------------------------

            C1  _1      C1  _2      C2  _1      C2  _2      C2  _3      C2  _4
            ------      ------      ------      ------      ------      ------
 C1  _1:    0.000000
 C1  _2:    2.776000    0.000000
 C2  _1:    1.387963    2.404065    0.000000
 C2  _2:    1.387963    2.404065    2.404000    0.000000
 C2  _3:    2.404065    1.387963    1.388000    2.775925    0.000000
 C2  _4:    2.404065    1.387963    2.775925    1.388000    2.404000    0.000000
 H7  _1:    1.074000    3.850000    2.137903    2.137903    3.377150    3.377150
 H7  _2:    3.850000    1.074000    3.377150    3.377150    2.137903    2.137903
 H8  _1:    2.137773    3.377068    1.073904    3.376970    2.137879    3.849829
 H8  _2:    2.137773    3.377068    3.376970    1.073904    3.849829    2.137879
 H8  _3:    3.377068    2.137773    2.137879    3.849829    1.073904    3.376970
 H8  _4:    3.377068    2.137773    3.849829    2.137879    3.376970    1.073904

            H7  _1      H7  _2      H8  _1      H8  _2      H8  _3      H8  _4
            ------      ------      ------      ------      ------      ------
 H7  _1:    0.000000
 H7  _2:    4.924000    0.000000
 H8  _1:    2.461866    4.264232    0.000000
 H8  _2:    2.461866    4.264232    4.264000    0.000000
 H8  _3:    4.264232    2.461866    2.462000    4.923732    0.000000
 H8  _4:    4.264232    2.461866    4.923732    2.462000    4.264000    0.000000


  Max    interatomic separation is    4.9240 Angstrom (    9.3050 Bohr)
  between atoms    8 and    7, "H7  _2" and "H7  _1".

  Min HX interatomic separation is    1.0739 Angstrom (    2.0294 Bohr)

  Min YX interatomic separation is    1.3880 Angstrom (    2.6229 Bohr)


  Bond distances (Angstrom):
  --------------------------

                  atom 1     atom 2       distance
                  ------     ------       --------
  bond distance:  C2  _1     C1  _1       1.387963
  bond distance:  C2  _2     C1  _1       1.387963
  bond distance:  C2  _3     C1  _2       1.387963
  bond distance:  C2  _3     C2  _1       1.388000
  bond distance:  C2  _4     C1  _2       1.387963
  bond distance:  C2  _4     C2  _2       1.388000
  bond distance:  H7  _1     C1  _1       1.074000
  bond distance:  H7  _2     C1  _2       1.074000
  bond distance:  H8  _1     C2  _1       1.073904
  bond distance:  H8  _2     C2  _2       1.073904
  bond distance:  H8  _3     C2  _3       1.073904
  bond distance:  H8  _4     C2  _4       1.073904


  Bond angles (degrees):
  ----------------------

                  atom 1     atom 2     atom 3         angle
                  ------     ------     ------         -----
  bond angle:     C2  _1     C1  _1     C2  _2       119.998
  bond angle:     C2  _1     C1  _1     H7  _1       120.001
  bond angle:     C2  _2     C1  _1     H7  _1       120.001
  bond angle:     C2  _3     C1  _2     C2  _4       119.998
  bond angle:     C2  _3     C1  _2     H7  _2       120.001
  bond angle:     C2  _4     C1  _2     H7  _2       120.001
  bond angle:     C1  _1     C2  _1     C2  _3       120.001
  bond angle:     C1  _1     C2  _1     H8  _1       119.996
  bond angle:     C2  _3     C2  _1     H8  _1       120.003
  bond angle:     C1  _1     C2  _2     C2  _4       120.001
  bond angle:     C1  _1     C2  _2     H8  _2       119.996
  bond angle:     C2  _4     C2  _2     H8  _2       120.003
  bond angle:     C1  _2     C2  _3     C2  _1       120.001
  bond angle:     C1  _2     C2  _3     H8  _3       119.996
  bond angle:     C2  _1     C2  _3     H8  _3       120.003
  bond angle:     C1  _2     C2  _4     C2  _2       120.001
  bond angle:     C1  _2     C2  _4     H8  _4       119.996
  bond angle:     C2  _2     C2  _4     H8  _4       120.003




 Principal moments of inertia (u*A**2) and principal axes
 --------------------------------------------------------

   IA      87.674560          0.000000    0.000000    1.000000
   IB      87.682208          0.000000    1.000000    0.000000
   IC     175.356768          1.000000    0.000000    0.000000


 Rotational constants
 --------------------

@    The molecule is planar.

               A                   B                   C

           5764.2605           5763.7577           2882.0046 MHz
            0.192275            0.192258            0.096133 cm-1


@  Nuclear repulsion energy :  204.633666549808 Hartree


  Symmetry Orbitals
  -----------------

  Number of orbitals in each symmetry:          16    4   11    2   16    4   11    2


  Symmetry  Ag ( 1)

    1     C1       1s         1 +    2
    2     C1       1s         3 +    4
    3     C1       1s         5 +    6
    4     C1       2pz       11 -   12
    5     C1       2pz       17 -   18
    6     C2       1s        19 +   20 +   21 +   22
    7     C2       1s        23 +   24 +   25 +   26
    8     C2       1s        27 +   28 +   29 +   30
    9     C2       2py       35 -   36 +   37 -   38
   10     C2       2pz       39 +   40 -   41 -   42
   11     C2       2py       47 -   48 +   49 -   50
   12     C2       2pz       51 +   52 -   53 -   54
   13     H7       1s        55 +   56
   14     H7       1s        57 +   58
   15     H8       1s        59 +   60 +   61 +   62
   16     H8       1s        63 +   64 +   65 +   66


  Symmetry  B3u( 2)

   17     C1       2px        7 +    8
   18     C1       2px       13 +   14
   19     C2       2px       31 +   32 +   33 +   34
   20     C2       2px       43 +   44 +   45 +   46


  Symmetry  B2u( 3)

   21     C1       2py        9 +   10
   22     C1       2py       15 +   16
   23     C2       1s        19 -   20 +   21 -   22
   24     C2       1s        23 -   24 +   25 -   26
   25     C2       1s        27 -   28 +   29 -   30
   26     C2       2py       35 +   36 +   37 +   38
   27     C2       2pz       39 -   40 -   41 +   42
   28     C2       2py       47 +   48 +   49 +   50
   29     C2       2pz       51 -   52 -   53 +   54
   30     H8       1s        59 -   60 +   61 -   62
   31     H8       1s        63 -   64 +   65 -   66


  Symmetry  B1g( 4)

   32     C2       2px       31 -   32 +   33 -   34
   33     C2       2px       43 -   44 +   45 -   46


  Symmetry  B1u( 5)

   34     C1       1s         1 -    2
   35     C1       1s         3 -    4
   36     C1       1s         5 -    6
   37     C1       2pz       11 +   12
   38     C1       2pz       17 +   18
   39     C2       1s        19 +   20 -   21 -   22
   40     C2       1s        23 +   24 -   25 -   26
   41     C2       1s        27 +   28 -   29 -   30
   42     C2       2py       35 -   36 -   37 +   38
   43     C2       2pz       39 +   40 +   41 +   42
   44     C2       2py       47 -   48 -   49 +   50
   45     C2       2pz       51 +   52 +   53 +   54
   46     H7       1s        55 -   56
   47     H7       1s        57 -   58
   48     H8       1s        59 +   60 -   61 -   62
   49     H8       1s        63 +   64 -   65 -   66


  Symmetry  B2g( 6)

   50     C1       2px        7 -    8
   51     C1       2px       13 -   14
   52     C2       2px       31 +   32 -   33 -   34
   53     C2       2px       43 +   44 -   45 -   46


  Symmetry  B3g( 7)

   54     C1       2py        9 -   10
   55     C1       2py       15 -   16
   56     C2       1s        19 -   20 -   21 +   22
   57     C2       1s        23 -   24 -   25 +   26
   58     C2       1s        27 -   28 -   29 +   30
   59     C2       2py       35 +   36 -   37 -   38
   60     C2       2pz       39 -   40 +   41 -   42
   61     C2       2py       47 +   48 -   49 -   50
   62     C2       2pz       51 -   52 +   53 -   54
   63     H8       1s        59 -   60 -   61 +   62
   64     H8       1s        63 -   64 -   65 +   66


  Symmetry  Au ( 8)

   65     C2       2px       31 -   32 -   33 +   34
   66     C2       2px       43 -   44 -   45 +   46

  Symmetries of electric field:  B3u(2)  B2u(3)  B1u(5)

  Symmetries of magnetic field:  B3g(7)  B2g(6)  B1g(4)


                     .---------------------------------------.
                     | Starting in Integral Section (HERMIT) |
                     `---------------------------------------'



 ***************************************************************************************
 ****************** Output from **INTEGRALS input processing (HERMIT) ******************
 ***************************************************************************************


 - Using defaults, no **INTEGRALS input found

 Default print level:        1

 Calculation of one- and two-electron Hamiltonian integrals.

 Center of mass  (bohr):      0.000000000000      0.000000000000      0.000000000000
 Operator center (bohr):      0.000000000000      0.000000000000      0.000000000000
 Gauge origin    (bohr):      0.000000000000      0.000000000000      0.000000000000
 Dipole origin   (bohr):      0.000000000000      0.000000000000      0.000000000000

Calculation of 2-electron integrals are postponed until they are needed.


     ************************************************************************
     ************************** Output from HERINT **************************
     ************************************************************************



                      Nuclear contribution to dipole moments
                      --------------------------------------

                    All dipole components are zero by symmetry


  Total CPU  time used in HERMIT:   0.03 seconds
  Total wall time used in HERMIT:   0.03 seconds


                        .----------------------------------.
                        | End of Integral Section (HERMIT) |
                        `----------------------------------'



                   .--------------------------------------------.
                   | Starting in Wave Function Section (SIRIUS) |
                   `--------------------------------------------'


 *** Output from Huckel module :

     Using EWMO model:          F
     Using EHT  model:          T
     Number of Huckel orbitals each symmetry:    9    2    6    1    9    2    6    1

 Huckel EHT eigenvalues for symmetry :  1
          -11.417412     -11.378338      -1.578708      -0.877186      -0.789319
           -0.413547      -0.214473      -0.208367      -0.176455

 Huckel EHT eigenvalues for symmetry :  2
           -0.708491      -0.288141

 Huckel EHT eigenvalues for symmetry :  3
          -11.397170      -1.222138      -0.530607      -0.491214      -0.201574
           -0.165857

 Huckel EHT eigenvalues for symmetry :  4
           -0.459555

 Huckel EHT eigenvalues for symmetry :  5
          -11.397171     -11.363304      -1.222149      -0.625201      -0.530628
           -0.234238      -0.201583      -0.165860      -0.159795

 Huckel EHT eigenvalues for symmetry :  6
           -0.459565      -0.237502

 Huckel EHT eigenvalues for symmetry :  7
          -11.378340      -0.877215      -0.413532      -0.214476      -0.176452
           -0.163492

 Huckel EHT eigenvalues for symmetry :  8
           -0.288145

 **********************************************************************
 *SIRIUS* a direct, restricted step, second order MCSCF program       *
 **********************************************************************

 
     Date and time (Linux)  : Mon May  4 22:00:44 2026
     Host name              : debian                                  

 Title lines from ".mol" input file:
     Benzene C6H6 using the 6-31G basis
     Using automatic symmetry detection

 Print level on unit LUPRI =   2 is   0
 Print level on unit LUW4  =   2 is   5

@    Restricted, closed shell Hartree-Fock calculation.

 Initial molecular orbitals are obtained according to
 ".MOSTART EHT   " input option

     Wave function specification
     ============================
@    Wave function type        --- HF ---
@    Number of closed shell electrons          42
@    Number of electrons in active shells       0
@    Total charge of the molecule               0

@    Spin multiplicity and 2 M_S                1         0
@    Total number of symmetries                 8 (point group: D2h)
@    Reference state symmetry                   1 (irrep name : Ag )

     Orbital specifications
     ======================
@    Abelian symmetry species          All |    1    2    3    4    5    6    7    8
@                                          |  Ag   B3u  B2u  B1g  B1u  B2g  B3g  Au 
                                       --- |  ---  ---  ---  ---  ---  ---  ---  ---
@    Total number of orbitals           66 |   16    4   11    2   16    4   11    2
@    Number of basis functions          66 |   16    4   11    2   16    4   11    2

      ** Automatic occupation of RHF orbitals **

      -- Initial occupation of symmetries is determined from extended Huckel guess.           
      -- Initial occupation of symmetries is :
@    Occupied SCF orbitals              21 |    6    1    4    1    5    1    3    0

     Maximum number of Fock   iterations      0
     Maximum number of DIIS   iterations     60
     Maximum number of QC-SCF iterations     60
     Threshold for SCF convergence     1.00D-05


 ***********************************************
 ***** DIIS acceleration of SCF iterations *****
 ***********************************************

 C1-DIIS algorithm; max error vectors =    8

 Automatic occupation of symmetries with  42 electrons.

 Iter     Total energy    Error norm  Delta(E)    SCF occupation
 -----------------------------------------------------------------------------

Calculating AOSUPINT

---> (Re)generating AOTWOINT


     ************************************************************************
     ************************** Output from HERINT **************************
     ************************************************************************


***  INFO  GETGAB: GABSO--- not found on AOGABINT. Regenerating.

 Threshold for neglecting two-electron integrals:  1.00D-12
 HERMIT - Number of two-electron integrals written:      360472 ( 14.7% )
 HERMIT - Megabytes written:                              4.257

  Total CPU  time used in TWOINT:   0.29 seconds
  Total wall time used in TWOINT:   0.29 seconds
  Time used in TWOINT     is       0.34 seconds
  CPU  time used in MAKE_AOTWOINT is   0.34 seconds
  WALL time used in MAKE_AOTWOINT is   0.34 seconds
     (Precalculated AO two-electron integrals are transformed to P-supermatrix elements.
      Threshold for discarding integrals :  1.00D-12 )

@  1  -229.846880389       3.85D+00  -2.30D+02     6   1   4   1   5   1   3   0
      Virial theorem: -V/T =      2.011744
@    MULPOP   C1  _1  0.21; C1  _2  0.21; C2  _1  0.21; C2  _2  0.21; C2  _3  0.21; C2  _4  0.21; H7  _1 -0.21; H7  _2 -0.21; H8  _1 -0.21; H8  _2 -0.21; 
@             H8  _3 -0.21; H8  _4 -0.21; 
   1  Level shift: doubly occupied orbital energies shifted by -2.00D-01
 -----------------------------------------------------------------------------
@  2  -230.584345087       7.05D-01  -7.37D-01     6   1   4   1   5   1   3   0
      Virial theorem: -V/T =      1.995939
@    MULPOP   C1  _1 -0.15; C1  _2 -0.15; C2  _1 -0.15; C2  _2 -0.15; C2  _3 -0.15; C2  _4 -0.15; H7  _1  0.15; H7  _2  0.15; H8  _1  0.15; H8  _2  0.15; 
@             H8  _3  0.15; H8  _4  0.15; 
   2  Level shift: doubly occupied orbital energies shifted by -5.00D-02
 -----------------------------------------------------------------------------
@  3  -230.621457125       1.73D-01  -3.71D-02     6   1   4   1   5   1   3   0
      Virial theorem: -V/T =      2.000139
@    MULPOP   C1  _1 -0.17; C1  _2 -0.17; C2  _1 -0.17; C2  _2 -0.17; C2  _3 -0.17; C2  _4 -0.17; H7  _1  0.17; H7  _2  0.17; H8  _1  0.17; H8  _2  0.17; 
@             H8  _3  0.17; H8  _4  0.17; 
   3  Level shift: doubly occupied orbital energies shifted by -1.25D-02
 -----------------------------------------------------------------------------
@  4  -230.624348276       3.01D-02  -2.89D-03     6   1   4   1   5   1   3   0
      Virial theorem: -V/T =      1.998827
@    MULPOP   C1  _1 -0.19; C1  _2 -0.19; C2  _1 -0.19; C2  _2 -0.19; C2  _3 -0.19; C2  _4 -0.19; H7  _1  0.19; H7  _2  0.19; H8  _1  0.19; H8  _2  0.19; 
@             H8  _3  0.19; H8  _4  0.19; 
 -----------------------------------------------------------------------------
@  5  -230.624471486       2.72D-03  -1.23D-04     6   1   4   1   5   1   3   0
      Virial theorem: -V/T =      1.998792
@    MULPOP   C1  _1 -0.20; C1  _2 -0.20; C2  _1 -0.20; C2  _2 -0.20; C2  _3 -0.20; C2  _4 -0.20; H7  _1  0.20; H7  _2  0.20; H8  _1  0.20; H8  _2  0.20; 
@             H8  _3  0.20; H8  _4  0.20; 
 -----------------------------------------------------------------------------
@  6  -230.624472478       2.61D-04  -9.92D-07     6   1   4   1   5   1   3   0
      Virial theorem: -V/T =      1.998795
@    MULPOP   C1  _1 -0.20; C1  _2 -0.20; C2  _1 -0.20; C2  _2 -0.20; C2  _3 -0.20; C2  _4 -0.20; H7  _1  0.20; H7  _2  0.20; H8  _1  0.20; H8  _2  0.20; 
@             H8  _3  0.20; H8  _4  0.20; 
 -----------------------------------------------------------------------------
@  7  -230.624472485       4.61D-05  -7.70D-09     6   1   4   1   5   1   3   0
      Virial theorem: -V/T =      1.998795
@    MULPOP   C1  _1 -0.20; C1  _2 -0.20; C2  _1 -0.20; C2  _2 -0.20; C2  _3 -0.20; C2  _4 -0.20; H7  _1  0.20; H7  _2  0.20; H8  _1  0.20; H8  _2  0.20; 
@             H8  _3  0.20; H8  _4  0.20; 
 -----------------------------------------------------------------------------
@  8  -230.624472485       1.62D-05  -1.77D-10     6   1   4   1   5   1   3   0
      Virial theorem: -V/T =      1.998795
@    MULPOP   C1  _1 -0.20; C1  _2 -0.20; C2  _1 -0.20; C2  _2 -0.20; C2  _3 -0.20; C2  _4 -0.20; H7  _1  0.20; H7  _2  0.20; H8  _1  0.20; H8  _2  0.20; 
@             H8  _3  0.20; H8  _4  0.20; 
 -----------------------------------------------------------------------------
@  9  -230.624472485       3.25D-06  -2.17D-11     6   1   4   1   5   1   3   0

@ *** DIIS converged in   9 iterations !
@     Converged SCF energy, gradient:   -230.624472485488    3.25D-06
    - total time used in SIRFCK :              0.00 seconds


 *** SCF orbital energy analysis ***

 Only the 20 lowest virtual orbital energies printed in each symmetry.

 Number of electrons        :   42
 Closed shell orbitals      :    6    1    4    1    5    1    3    0

 Sym       Hartree-Fock orbital energies

1 Ag    -11.23503964   -11.23324735    -1.15570938    -0.82372600    -0.71341093
         -0.48805989     0.23572463     0.33251973     0.47351894     0.78328933
          0.83636938     0.88068912     1.14187990     1.25415148     1.36180342
          1.73523902

2 B3u    -0.50138812     0.14818415     0.75405060     0.91748308

3 B2u   -11.23447407    -1.01689260    -0.61869888    -0.58805355     0.29199092
          0.50042807     0.67890759     0.89837345     1.17252928     1.27484741
          1.44199692

4 B1g    -0.33403692     0.84483677

5 B1u   -11.23447826   -11.23265280    -1.01690753    -0.63957404    -0.58805731
          0.29196796     0.33895655     0.50043865     0.78418090     0.89834996
          1.14209140     1.17247625     1.27483394     1.44191131     1.48650267
          2.18289336

6 B2g    -0.33405161     0.36555379     0.84482890     0.99422067

7 B3g   -11.23324346    -0.82375825    -0.48806095     0.33251033     0.47352435
          0.77762350     0.88066124     1.14191021     1.28449238     1.36174925
          1.73528458

8 Au      0.14817480     0.91747962

    E(LUMO) :     0.14817480 au (symmetry 8)
  - E(HOMO) :    -0.33403692 au (symmetry 4)
  ------------------------------------------
    gap     :     0.48221172 au

 --- Writing SIRIFC interface file

--------------------------------------------------------------------------------


     .--------------------------------------------------.
     | HF-SCF KT IPs [a.u. & eV] from Koopmans' theorem |
     `--------------------------------------------------'


     HF-SCF KT symmetry 1 ( Ag ) in point group D2h -- 6 principal poles with pole strength 1

   ============  ============  ============  ============  ============
      11.235040     11.233247      1.155709      0.823726      0.713411
     305.720980    305.672210     31.448452     22.414725     19.412899
   ============  ============  ============  ============  ============

   ============
       0.488060
      13.280785
   ============

     HF-SCF KT symmetry 2 ( B3u) in point group D2h -- 1 principal poles with pole strength 1

   ============
       0.501388
      13.643465
   ============

     HF-SCF KT symmetry 3 ( B2u) in point group D2h -- 4 principal poles with pole strength 1

   ============  ============  ============  ============
      11.234474      1.016893      0.618699      0.588054
     305.705590     27.671055     16.835653     16.001751
   ============  ============  ============  ============

     HF-SCF KT symmetry 4 ( B1g) in point group D2h -- 1 principal poles with pole strength 1

   ============
       0.334037
       9.089607
   ============

     HF-SCF KT symmetry 5 ( B1u) in point group D2h -- 5 principal poles with pole strength 1

   ============  ============  ============  ============  ============
      11.234478     11.232653      1.016908      0.639574      0.588057
     305.705704    305.656031     27.671461     17.403695     16.001853
   ============  ============  ============  ============  ============

     HF-SCF KT symmetry 6 ( B2g) in point group D2h -- 1 principal poles with pole strength 1

   ============
       0.334052
       9.090007
   ============

     HF-SCF KT symmetry 7 ( B3g) in point group D2h -- 3 principal poles with pole strength 1

   ============  ============  ============
      11.233243      0.823758      0.488061
     305.672104     22.415602     13.280814
   ============  ============  ============

@ Summary of HF-SCF KT ionization potentials [eV]:

@ Symmetry 1 (Ag ) :   305.721     305.672      31.448      22.415      19.413
@                       13.281

@ Symmetry 2 (B3u) :    13.643

@ Symmetry 3 (B2u) :   305.706      27.671      16.836      16.002

@ Symmetry 4 (B1g) :     9.090

@ Symmetry 5 (B1u) :   305.706     305.656      27.671      17.404      16.002

@ Symmetry 6 (B2g) :     9.090

@ Symmetry 7 (B3g) :   305.672      22.416      13.281

@ Symmetry 8 (Au ) :  No IPs in this symmetry

  === End of HF-SCF KT output ===
--------------------------------------------------------------------------------


 CPU and wall time for SCF :       0.364       0.364


                       .-----------------------------------.
                       | --- Final results from SIRIUS --- |
                       `-----------------------------------'


@    Spin multiplicity:           1
@    Spatial symmetry:            1 ( irrep  Ag  in D2h )
@    Total charge of molecule:    0

@    Final HF energy:            -230.624472485488                 
@    Nuclear repulsion:           204.633666549808
@    Electronic energy:          -435.258139035297

@    Final gradient norm:           0.000003250832

 
     Date and time (Linux)  : Mon May  4 22:00:45 2026
     Host name              : debian                                  

File label for MO orbitals:   4May26   FOCKDIIS

 (Only coefficients > 0.0100 are printed.)

 Molecular orbitals for symmetry species 1  (Ag )
 ------------------------------------------------

    Orbital         1        2        3        4        5        6        7
   1 C1  :1s     0.4075   0.5746  -0.0929   0.1009  -0.0092  -0.0039   0.0375
   2 C1  :1s     0.0095   0.0151   0.1825  -0.2063   0.0186   0.0099  -0.0440
   3 C1  :1s    -0.0029  -0.0139   0.1078  -0.1803   0.0370   0.0110  -0.5774
   4 C1  :2pz    0.0001  -0.0003  -0.0631  -0.0617   0.1945  -0.2258  -0.1068
   5 C1  :2pz   -0.0005   0.0034  -0.0078  -0.0462   0.0714  -0.1555  -0.3204
   6 C2  :1s     0.4060  -0.2883  -0.0929  -0.0505  -0.0092   0.0020   0.0374
   7 C2  :1s     0.0094  -0.0076   0.1825   0.1032   0.0185  -0.0049  -0.0440
   8 C2  :1s    -0.0029   0.0069   0.1078   0.0901   0.0370  -0.0055  -0.5773
   9 C2  :2py    0.0000   0.0002  -0.0546   0.1175   0.1684  -0.0158  -0.0925
  10 C2  :2pz    0.0000   0.0000  -0.0315  -0.1417   0.0973   0.2531  -0.0534
  11 C2  :2py   -0.0004  -0.0023  -0.0068   0.0395   0.0618   0.0208  -0.2773
  12 C2  :2pz   -0.0002   0.0006  -0.0039  -0.0221   0.0357   0.1196  -0.1601
  13 H7  :1s    -0.0002  -0.0002   0.0361  -0.1159   0.1114  -0.1705   0.0363
  14 H7  :1s     0.0012   0.0006   0.0047  -0.0385   0.0622  -0.1289   0.8061
  15 H8  :1s    -0.0002   0.0001   0.0361   0.0580   0.1114   0.0853   0.0363
  16 H8  :1s     0.0012  -0.0003   0.0047   0.0193   0.0622   0.0644   0.8059

    Orbital         8        9       10       11       12       13       14
   1 C1  :1s    -0.0788  -0.0767  -0.0048   0.0093  -0.0825  -0.0256   0.0077
   2 C1  :1s     0.0878   0.0556   0.5286   0.3923  -0.0065   0.2806  -0.4048
   3 C1  :1s     1.5894   2.3423  -0.3672  -0.5812   0.5123  -0.0473   0.7776
   4 C1  :2pz    0.1001  -0.1981  -0.2473   0.1027  -0.2183   0.7025  -0.3919
   5 C1  :2pz    0.7594  -1.8130   0.2012  -0.3070  -0.2913  -2.5177   0.4777
   6 C2  :1s     0.0394   0.0383  -0.0048   0.0093   0.0412   0.0128   0.0077
   7 C2  :1s    -0.0439  -0.0278   0.5286   0.3923   0.0033  -0.1400  -0.4052
   8 C2  :1s    -0.7949  -1.1711  -0.3668  -0.5817  -0.2562   0.0231   0.7783
   9 C2  :2py   -0.0200   0.0798  -0.2142   0.0890   0.3447  -0.2822  -0.3397
  10 C2  :2pz   -0.0655   0.0598  -0.1237   0.0514  -0.3786  -0.2132  -0.1962
  11 C2  :2py   -0.1406   1.2145   0.1741  -0.2661  -0.0643   1.0381   0.4153
  12 C2  :2pz   -0.5161  -0.2907   0.1006  -0.1538   0.4025   0.7188   0.2400
  13 H7  :1s     0.0161   0.0106  -0.1029   0.3800  -0.2715  -0.2987   0.3692
  14 H7  :1s    -1.4480   1.0589   0.1354   0.1111   0.1558   1.7419  -0.7886
  15 H8  :1s    -0.0080  -0.0053  -0.1029   0.3800   0.1358   0.1491   0.3693
  16 H8  :1s     0.7243  -0.5294   0.1356   0.1115  -0.0779  -0.8705  -0.7900

    Orbital        15       16
   1 C1  :1s     0.0294   0.0301
   2 C1  :1s     1.2528   0.8189
   3 C1  :1s    -4.3137  -3.0452
   4 C1  :2pz   -0.1367  -0.2499
   5 C1  :2pz    0.4286   3.9043
   6 C2  :1s    -0.0147  -0.0150
   7 C2  :1s    -0.6263  -0.4094
   8 C2  :1s     2.1568   1.5226
   9 C2  :2py    0.1284  -0.0341
  10 C2  :2pz   -0.0855   0.3088
  11 C2  :2py   -0.6408  -1.6436
  12 C2  :2pz    0.6812  -1.0573
  13 H7  :1s     0.4233  -0.6855
  14 H7  :1s     0.2209  -1.1632
  15 H8  :1s    -0.2117   0.3428
  16 H8  :1s    -0.1104   0.5816

 Molecular orbitals for symmetry species 2  (B3u)
 ------------------------------------------------

    Orbital         1        2        3        4
   1 C1  :2px    0.2114   0.3140  -0.4321  -0.6637
   2 C1  :2px    0.1366   0.5916   0.3005   0.9902
   3 C2  :2px    0.2114  -0.1570  -0.4321   0.3319
   4 C2  :2px    0.1366  -0.2958   0.3004  -0.4951

 Molecular orbitals for symmetry species 3  (B2u)
 ------------------------------------------------

    Orbital         1        2        3        4        5        6        7
   1 C1  :2py   -0.0003   0.1159   0.2759  -0.0838  -0.0211   0.2358  -0.3530
   2 C1  :2py    0.0018   0.0095   0.0920  -0.0133   0.2800   2.3206   0.5349
   3 C2  :1s     0.4980  -0.1120   0.0000   0.0169   0.0324   0.0428  -0.0000
   4 C2  :1s     0.0123   0.2249  -0.0000  -0.0404  -0.0122  -0.0132   0.0000
   5 C2  :1s    -0.0057   0.1674  -0.0000  -0.0360  -0.9709  -1.9379  -0.0001
   6 C2  :2py   -0.0002   0.0045  -0.1379   0.2048  -0.1574   0.0940   0.1765
   7 C2  :2pz    0.0000  -0.0643   0.2390   0.1664  -0.0787  -0.0819  -0.3057
   8 C2  :2py    0.0009   0.0048  -0.0460   0.0910  -0.4583   0.8057  -0.2674
   9 C2  :2pz   -0.0005  -0.0027   0.0797   0.0602  -0.4263  -0.8747   0.4631
  10 H8  :1s    -0.0002   0.0676   0.0000   0.1461   0.0080  -0.1207   0.0000
  11 H8  :1s     0.0009   0.0136   0.0000   0.1087   1.1832   0.0439  -0.0000

    Orbital         8        9       10       11
   1 C1  :2py    0.4935   0.2243   0.5783  -0.0461
   2 C1  :2py   -0.1286  -1.1449  -2.5766   1.6901
   3 C2  :1s     0.0351   0.0245  -0.0137   0.0031
   4 C2  :1s     0.5844  -0.5855  -0.5592  -0.4826
   5 C2  :1s    -0.8568   1.9191   2.3218  -1.2920
   6 C2  :2py    0.1310  -0.3513   0.3857   0.3055
   7 C2  :2pz   -0.2093  -0.3324  -0.1112   0.2031
   8 C2  :2py   -0.0757   0.5922  -1.0184  -0.7296
   9 C2  :2pz    0.0305   1.0030   0.8996  -1.3972
  10 H8  :1s     0.2691   0.2791  -0.3491   0.4945
  11 H8  :1s     0.1612  -1.1658   0.3498   0.5522

 Molecular orbitals for symmetry species 4  (B1g)
 ------------------------------------------------

    Orbital         1        2
   1 C2  :2px    0.2749   0.5472
   2 C2  :2px    0.2344  -0.5155

 Molecular orbitals for symmetry species 5  (B1u)
 ------------------------------------------------

    Orbital         1        2        3        4        5        6        7
   1 C1  :1s     0.5757  -0.4060  -0.1293   0.0564   0.0195   0.0374   0.0446
   2 C1  :1s     0.0142  -0.0115   0.2597  -0.1227  -0.0466  -0.0142  -0.1331
   3 C1  :1s    -0.0066   0.0224   0.1933  -0.0227  -0.0416  -1.1207   0.5450
   4 C1  :2pz   -0.0002   0.0003  -0.0326  -0.1312   0.3009  -0.2028  -0.0578
   5 C1  :2pz    0.0006  -0.0093   0.0033  -0.1584   0.1258  -0.7046  -1.6041
   6 C2  :1s     0.2869   0.4074  -0.0646  -0.0564   0.0098   0.0187  -0.0446
   7 C2  :1s     0.0071   0.0115   0.1299   0.1226  -0.0233  -0.0070   0.1331
   8 C2  :1s    -0.0032  -0.0224   0.0967   0.0226  -0.0208  -0.5605  -0.5443
   9 C2  :2py    0.0000  -0.0002  -0.0643   0.1138   0.1665  -0.0787   0.0501
  10 C2  :2pz   -0.0003  -0.0001   0.0788   0.0657   0.0124  -0.0665   0.0289
  11 C2  :2py   -0.0005   0.0081  -0.0027   0.1372   0.0601  -0.4259   1.3895
  12 C2  :2pz    0.0015   0.0047   0.0080   0.0792   0.0214   0.0338   0.8021
  13 H7  :1s    -0.0002   0.0002   0.0781  -0.1415   0.1687   0.0092   0.0218
  14 H7  :1s     0.0011   0.0010   0.0157  -0.0540   0.1255   1.3662   1.4090
  15 H8  :1s    -0.0001  -0.0002   0.0391   0.1416   0.0843   0.0046  -0.0217
  16 H8  :1s     0.0005  -0.0010   0.0078   0.0541   0.0627   0.6828  -1.4096

    Orbital         8        9       10       11       12       13       14
   1 C1  :1s     0.0494   0.1200   0.0406  -0.0047  -0.0283  -0.0158   0.0035
   2 C1  :1s    -0.0153  -0.0745   0.6748  -0.0773   0.6759  -0.6458  -0.5573
   3 C1  :1s    -2.2377  -4.7268  -0.9896  -1.9815  -2.2170   2.6811  -1.4910
   4 C1  :2pz    0.0467   0.1121   0.0101  -0.5613   0.5427   0.3212   0.4230
   5 C1  :2pz    0.3004   3.5123  -0.0573   2.9432  -1.1682  -0.4982  -1.5361
   6 C2  :1s     0.0247  -0.1200   0.0203   0.0047  -0.0142  -0.0079   0.0018
   7 C2  :1s    -0.0076   0.0744   0.3374   0.0765   0.3381  -0.3229  -0.2785
   8 C2  :1s    -1.1190   4.7265  -0.4937   1.9835  -1.1057   1.3410  -0.7460
   9 C2  :2py   -0.0819  -0.0971  -0.2093   0.4855   0.3327  -0.1112   0.2030
  10 C2  :2pz    0.1885  -0.0561   0.3727   0.2803  -0.0321   0.5142   0.0711
  11 C2  :2py   -0.8744  -3.0416   0.0302  -2.5474  -1.0049   0.8995  -1.3970
  12 C2  :2pz    1.8158  -1.7558  -0.1115  -1.4713   0.5639  -2.0576   0.8831
  13 H7  :1s    -0.1394   0.1606   0.3108   0.0168  -0.3224  -0.4030   0.5707
  14 H7  :1s     0.0510  -1.3241   0.1856  -1.3396   1.3447   0.4033   0.6375
  15 H8  :1s    -0.0697  -0.1607   0.1554  -0.0163  -0.1612  -0.2016   0.2856
  16 H8  :1s     0.0252   1.3240   0.0933   1.3380   0.6743   0.2021   0.3189

    Orbital        15
   1 C1  :1s    -0.0167
   2 C1  :1s    -0.6976
   3 C1  :1s     1.9102
   4 C1  :2pz    0.1251
   5 C1  :2pz    0.4390
   6 C2  :1s     0.0167
   7 C2  :1s     0.6976
   8 C2  :1s    -1.9085
   9 C2  :2py   -0.1086
  10 C2  :2pz   -0.0626
  11 C2  :2py   -0.3792
  12 C2  :2pz   -0.2201
  13 H7  :1s    -0.4751
  14 H7  :1s    -0.3336
  15 H8  :1s     0.4748
  16 H8  :1s     0.3334

 Molecular orbitals for symmetry species 6  (B2g)
 ------------------------------------------------

    Orbital         1        2        3        4
   1 C1  :2px    0.3174  -0.2394   0.6319  -0.4788
   2 C1  :2px    0.2707  -0.6946  -0.5952   1.1127
   3 C2  :2px    0.1587   0.2394   0.3159   0.4788
   4 C2  :2px    0.1353   0.6946  -0.2976  -1.1127

 Molecular orbitals for symmetry species 7  (B3g)
 ------------------------------------------------

    Orbital         1        2        3        4        5        6        7
   1 C1  :2py   -0.0000   0.2096  -0.2622   0.0539  -0.0136  -0.2203   0.5776
   2 C1  :2py    0.0019   0.0449  -0.1076   0.4350   0.9918  -4.0947  -0.4387
   3 C2  :1s     0.4982  -0.0874   0.0034   0.0682   0.0664   0.0000   0.0714
   4 C2  :1s     0.0131   0.1787  -0.0086  -0.0761  -0.0482  -0.0000   0.0056
   5 C2  :1s    -0.0120   0.1561  -0.0096  -1.3766  -2.0282   0.0000  -0.4435
   6 C2  :2py   -0.0002  -0.0061   0.2349  -0.0886   0.1520  -0.1102   0.0194
   7 C2  :2pz   -0.0002   0.1175  -0.0157  -0.0200   0.0799   0.1910   0.3446
   8 C2  :2py    0.0020   0.0234   0.1435  -0.6783   1.1118  -2.0471   0.3288
   9 C2  :2pz    0.0023   0.0395   0.0208  -0.1407   1.2146   3.5461  -0.0654
  10 H8  :1s    -0.0001   0.1004   0.1477  -0.0139  -0.0091   0.0001   0.2351
  11 H8  :1s     0.0005   0.0333   0.1116   1.2543  -0.9173  -0.0001  -0.1347

    Orbital         8        9       10       11
   1 C1  :2py   -0.0503  -0.6082  -0.1597   0.3284
   2 C1  :2py    0.1194   3.5737   1.0517  -0.1088
   3 C2  :1s    -0.0222  -0.0000   0.0255   0.0261
   4 C2  :1s     0.2429  -0.0001   1.0848   0.7093
   5 C2  :1s    -0.0406   0.0002  -3.7352  -2.6379
   6 C2  :2py    0.5393  -0.3041  -0.0627  -0.2694
   7 C2  :2pz    0.2824   0.5268  -0.1283   0.0340
   8 C2  :2py   -1.9183   1.7869   0.0589   2.9551
   9 C2  :2pz   -1.0385  -3.0951   0.6400   1.6446
  10 H8  :1s    -0.2585  -0.0000   0.3667  -0.5937
  11 H8  :1s     1.5085   0.0000   0.1913  -1.0076

 Molecular orbitals for symmetry species 8  (Au )
 ------------------------------------------------

    Orbital         1        2
   1 C2  :2px    0.2719  -0.5748
   2 C2  :2px    0.5123   0.8575

  Total CPU  time used in SIRIUS :   0.37 seconds
  Total wall time used in SIRIUS :   0.37 seconds

 
     Date and time (Linux)  : Mon May  4 22:00:45 2026
     Host name              : debian                                  


                     .---------------------------------------.
                     | End of Wave Function Section (SIRIUS) |
                     `---------------------------------------'

  Total CPU  time used in DALTON:   0.42 seconds
  Total wall time used in DALTON:   0.42 seconds

 
     Date and time (Linux)  : Mon May  4 22:00:45 2026
     Host name              : debian                                  
