
    -----------------------------------------------------------------------
          Psi4: An Open-Source Ab Initio Electronic Structure Package
                               Psi4 1.10 release

                         Git: Rev {} zzzzzzz 


    D. G. A. Smith, L. A. Burns, A. C. Simmonett, R. M. Parrish,
    M. C. Schieber, R. Galvelis, P. Kraus, H. Kruse, R. Di Remigio,
    A. Alenaizan, A. M. James, S. Lehtola, J. P. Misiewicz, M. Scheurer,
    R. A. Shaw, J. B. Schriber, Y. Xie, Z. L. Glick, D. A. Sirianni,
    J. S. O'Brien, J. M. Waldrop, A. Kumar, E. G. Hohenstein,
    B. P. Pritchard, B. R. Brooks, H. F. Schaefer III, A. Yu. Sokolov,
    K. Patkowski, A. E. DePrince III, U. Bozkaya, R. A. King,
    F. A. Evangelista, J. M. Turney, T. D. Crawford, C. D. Sherrill,
    J. Chem. Phys. 152(18) 184108 (2020). https://doi.org/10.1063/5.0006002

                            Additional Code Authors
    E. T. Seidl, C. L. Janssen, E. F. Valeev, M. L. Leininger,
    J. F. Gonthier, R. M. Richard, H. R. McAlexander, M. Saitow, X. Wang,
    P. Verma, M. H. Lechner, A. Jiang, S. Behnle, A. G. Heide,
    M. F. Herbst, D. L. Poole, T. Győri, E. C. Mitchell, J. P. Pederson,
    and A. M. Wallace

             Previous Authors, Complete List of Code Contributors,
                       and Citations for Specific Modules
    https://github.com/psi4/psi4/blob/master/codemeta.json
    https://github.com/psi4/psi4/graphs/contributors
    https://psicode.org/psi4manual/master/introduction.html#citing-psifour

    -----------------------------------------------------------------------


    Psi4 started on: Tuesday, 05 May 2026 09:26AM

    Process ID: 8717
    Host:       debian
    PSIDATADIR: /home/vdwv/DIPLOM_ITMO/CALCULATIONS_AND_SOFTS/softwares/Psi4_Shenanigans/psi4conda/share/psi4
    Memory:     500.0 MiB
    Threads:    1
    Addons:     adcc, a̶m̶b̶i̶t̶, b̶s̶e̶, c̶c̶t̶3̶, c̶f̶o̶u̶r̶, c̶h̶e̶m̶p̶s̶2̶, c̶p̶p̶e̶, ddx, dftd3, dftd4,
                dkh, ecpint, einsums, f̶o̶r̶t̶e̶, g̶a̶u̶x̶c̶, gcp, g̶d̶m̶a̶, geometric,
                g̶p̶u̶_̶d̶f̶c̶c̶, i̶n̶t̶e̶g̶r̶a̶t̶o̶r̶x̶x̶, i̶p̶i̶, libefp, m̶d̶i̶, m̶p̶2̶d̶,
                m̶r̶c̶c̶, ooo, o̶p̶e̶n̶f̶e̶r̶m̶i̶o̶n̶p̶s̶i̶4̶, pcmsolver, p̶s̶i̶4̶f̶o̶c̶k̶c̶i̶,
                p̶s̶i̶x̶a̶s̶, r̶e̶s̶p̶, s̶i̶m̶i̶n̶t̶, s̶n̶s̶m̶p̶2̶, v̶2̶r̶d̶m̶_̶c̶a̶s̶s̶c̶f̶

  ==> Input File <==

--------------------------------------------------------------------------
#! Sample HF/cc-pVDZ CH3COOH computation

memory 600 mb

molecule ch3cooh {
  C1   1.025 -0.940  0.000
  C2   0.000  0.155  0.000
  O3   0.229  1.318  0.000
  H4   2.021 -0.507  0.000
  H5   0.885 -1.568  0.880
  H6   0.885 -1.568 -0.880
  O7  -1.242 -0.326  0.000
  H8  -1.840  0.414  0.000
  units angstrom
}


set basis cc-pVDZ
energy('scf')

--------------------------------------------------------------------------

  Memory set to 572.205 MiB by Python driver.

Scratch directory: /tmp/
   => Libint2 <=

    Primary   basis highest AM E, G, H:  6, 6, 3
    Auxiliary basis highest AM E, G, H:  7, 7, 4
    Onebody   basis highest AM E, G, H:  -, -, -
    Solid Harmonics ordering:            Gaussian

*** tstart() called on debian
*** at Tue May  5 09:26:53 2026

   => Loading Basis Set <=

    Name: CC-PVDZ
    Role: ORBITAL
    Keyword: BASIS
    atoms 1-2    entry C          line   138 file /home/vdwv/DIPLOM_ITMO/CALCULATIONS_AND_SOFTS/softwares/Psi4_Shenanigans/psi4conda/share/psi4/basis/cc-pvdz.gbs 
    atoms 3, 7   entry O          line   198 file /home/vdwv/DIPLOM_ITMO/CALCULATIONS_AND_SOFTS/softwares/Psi4_Shenanigans/psi4conda/share/psi4/basis/cc-pvdz.gbs 
    atoms 4-6, 8 entry H          line    22 file /home/vdwv/DIPLOM_ITMO/CALCULATIONS_AND_SOFTS/softwares/Psi4_Shenanigans/psi4conda/share/psi4/basis/cc-pvdz.gbs 


         ---------------------------------------------------------
                                   SCF
               by Justin Turney, Rob Parrish, Andy Simmonett
                          and Daniel G. A. Smith
                              RHF Reference
                        1 Threads,    572 MiB Core
         ---------------------------------------------------------

  ==> Geometry <==

    Molecular point group: cs
    Full point group: Cs

    Geometry (in Angstrom), charge = 0, multiplicity = 1:

       Center              X                  Y                   Z               Mass       
    ------------   -----------------  -----------------  -----------------  -----------------
         C            1.057265002211    -0.993192739076     0.000000000000    12.000000000000
         C            0.032265002211     0.101807260924     0.000000000000    12.000000000000
         O            0.261265002211     1.264807260924     0.000000000000    15.994914619570
         H            2.053265002211    -0.560192739076     0.000000000000     1.007825032230
         H            0.917265002211    -1.621192739076     0.880000000000     1.007825032230
         H            0.917265002211    -1.621192739076    -0.880000000000     1.007825032230
         O           -1.209734997789    -0.379192739076     0.000000000000    15.994914619570
         H           -1.807734997789     0.360807260924     0.000000000000     1.007825032230

  Running in cs symmetry.

  Rotational constants: A =      0.39092  B =      0.31953  C =      0.18174 [cm^-1]
  Rotational constants: A =  11719.44674  B =   9579.34899  C =   5448.33639 [MHz]
  Nuclear repulsion =  122.499275652103577

  Charge       = 0
  Multiplicity = 1
  Electrons    = 32
  Nalpha       = 16
  Nbeta        = 16

  ==> Algorithm <==

  SCF Algorithm Type is DF.
  DIIS enabled.
  MOM disabled.
  Fractional occupation disabled.
  Guess Type is SAD.
  Energy threshold   = 1.00e-06
  Density threshold  = 1.00e-06
  Integral threshold = 1.00e-12

  ==> Primary Basis <==

  Basis Set: CC-PVDZ
    Blend: CC-PVDZ
    Number of shells: 36
    Number of basis functions: 76
    Number of Cartesian functions: 80
    Spherical Harmonics?: true
    Max angular momentum: 2

   => Loading Basis Set <=

    Name: (CC-PVDZ AUX)
    Role: JKFIT
    Keyword: DF_BASIS_SCF
    atoms 1-2    entry C          line   121 file /home/vdwv/DIPLOM_ITMO/CALCULATIONS_AND_SOFTS/softwares/Psi4_Shenanigans/psi4conda/share/psi4/basis/cc-pvdz-jkfit.gbs 
    atoms 3, 7   entry O          line   221 file /home/vdwv/DIPLOM_ITMO/CALCULATIONS_AND_SOFTS/softwares/Psi4_Shenanigans/psi4conda/share/psi4/basis/cc-pvdz-jkfit.gbs 
    atoms 4-6, 8 entry H          line    51 file /home/vdwv/DIPLOM_ITMO/CALCULATIONS_AND_SOFTS/softwares/Psi4_Shenanigans/psi4conda/share/psi4/basis/cc-pvdz-jkfit.gbs 

  ==> Integral Setup <==

  DFHelper Memory: AOs need 0.018 GiB; user supplied 0.419 GiB. 
  SCF_SUBTYPE=INCORE selected. In-core MEM_DF algorithm will be used.
  Using in-core AOs.

  ==> MemDFJK: Density-Fitted J/K Matrices <==

    J tasked:                   Yes
    K tasked:                   Yes
    wK tasked:                   No
    OpenMP threads:               1
    Memory [MiB]:               429
    Algorithm:                 Core
    Schwarz Cutoff:           1E-12
    Mask sparsity (%):       0.0000
    Fitting Condition:        1E-10

   => Auxiliary Basis Set <=

  Basis Set: (CC-PVDZ AUX)
    Blend: CC-PVDZ-JKFIT
    Number of shells: 132
    Number of basis functions: 372
    Number of Cartesian functions: 424
    Spherical Harmonics?: true
    Max angular momentum: 3

  Minimum eigenvalue in the overlap matrix is 4.8685277525E-03.
  Reciprocal condition number of the overlap matrix is 1.0317573775E-03.
    Using symmetric orthogonalization.

  ==> Pre-Iterations <==

  SCF Guess: Superposition of Atomic Densities via on-the-fly atomic UHF (no occupation information).

   -------------------------
    Irrep   Nso     Nmo    
   -------------------------
     A'        53      53 
     A"        23      23 
   -------------------------
    Total      76      76
   -------------------------

  ==> Iterations <==

                           Total Energy        Delta E     RMS |[F,P]|

   @DF-RHF iter SAD:  -227.88807698768969   -2.27888e+02   0.00000e+00 
   @DF-RHF iter   1:  -225.32220845652003    2.56587e+00   3.49773e-02 ADIIS/DIIS
   @DF-RHF iter   2:  -227.09746093203566   -1.77525e+00   2.21927e-02 ADIIS/DIIS
   @DF-RHF iter   3:  -227.79989073693616   -7.02430e-01   4.79058e-03 ADIIS/DIIS
   @DF-RHF iter   4:  -227.82763131542956   -2.77406e-02   1.98944e-03 ADIIS/DIIS
   @DF-RHF iter   5:  -227.83347513924068   -5.84382e-03   3.30764e-04 ADIIS/DIIS
   @DF-RHF iter   6:  -227.83383955269807   -3.64413e-04   1.45312e-04 ADIIS/DIIS
   @DF-RHF iter   7:  -227.83389151886433   -5.19662e-05   4.37740e-05 DIIS
   @DF-RHF iter   8:  -227.83390030204782   -8.78318e-06   1.51037e-05 DIIS
   @DF-RHF iter   9:  -227.83390128442920   -9.82381e-07   5.37831e-06 DIIS
   @DF-RHF iter  10:  -227.83390139719825   -1.12769e-07   1.42199e-06 DIIS
   @DF-RHF iter  11:  -227.83390140590825   -8.71000e-09   2.51312e-07 DIIS
  Energy and wave function converged.


  ==> Post-Iterations <==

    Orbital Energies [Eh]
    ---------------------

    Doubly Occupied:                                                      

       1Ap   -20.607081     2Ap   -20.544628     3Ap   -11.383406  
       4Ap   -11.247478     5Ap    -1.476820     6Ap    -1.368157  
       7Ap    -1.025306     8Ap    -0.828074     9Ap    -0.702891  
      10Ap    -0.681706     1App   -0.651947    11Ap    -0.579679  
      12Ap    -0.569284     2App   -0.558257     3App   -0.478616  
      13Ap    -0.446488  

    Virtual:                                                              

      14Ap     0.181861     4App    0.190534    15Ap     0.210312  
      16Ap     0.255852     5App    0.272369    17Ap     0.376206  
      18Ap     0.460137    19Ap     0.496743     6App    0.629577  
      20Ap     0.648226     7App    0.708978    21Ap     0.724286  
      22Ap     0.739363    23Ap     0.814420     8App    0.850389  
      24Ap     0.854624    25Ap     0.895425    26Ap     0.934874  
      27Ap     1.005321    28Ap     1.085640     9App    1.137877  
      29Ap     1.194644    10App    1.226978    30Ap     1.265804  
      31Ap     1.332757    11App    1.363621    12App    1.402874  
      32Ap     1.430333    33Ap     1.554464    13App    1.558487  
      14App    1.657227    15App    1.715525    34Ap     1.760104  
      35Ap     1.853497    36Ap     1.896714    16App    1.902328  
      37Ap     1.932413    38Ap     1.974248    39Ap     2.095134  
      17App    2.107092    40Ap     2.160662    41Ap     2.245896  
      42Ap     2.383442    43Ap     2.449324    18App    2.460425  
      44Ap     2.528373    45Ap     2.644034    46Ap     2.746445  
      19App    2.772172    47Ap     2.857983    20App    2.979643  
      48Ap     3.062680    21App    3.231198    22App    3.314141  
      49Ap     3.475745    23App    3.568737    50Ap     3.578023  
      51Ap     3.877492    52Ap     3.932647    53Ap     4.131601  

    Final Occupation by Irrep:
             Ap   App 
    DOCC [    13,    3 ]
    NA   [    13,    3 ]
    NB   [    13,    3 ]

  @DF-RHF Final Energy:  -227.83390140590825

   => Energetics <=

    Nuclear Repulsion Energy =            122.4992756521035773
    One-Electron Energy =                -554.3667612054607616
    Two-Electron Energy =                 204.0335841474489484
    Total Energy =                       -227.8339014059082501

Computation Completed


Properties will be evaluated at   0.000000,   0.000000,   0.000000 [a0]

Properties computed using the SCF density matrix


 Multipole Moments:

 ------------------------------------------------------------------------------------
     Multipole            Electronic (a.u.)      Nuclear  (a.u.)        Total (a.u.)
 ------------------------------------------------------------------------------------

 L = 1.  Multiply by 2.5417464519 to convert [e a0] to [Debye]
 Dipole X            :         -2.1211649            1.9454354           -0.1757295
 Dipole Y            :          2.5353466           -3.2222999           -0.6869533
 Dipole Z            :          0.0000000            0.0000000            0.0000000
 Magnitude           :                                                    0.7090738

 ------------------------------------------------------------------------------------

*** tstop() called on debian at Tue May  5 09:26:55 2026
Module time:
	user time   =       1.44 seconds =       0.02 minutes
	system time =       0.09 seconds =       0.00 minutes
	total time  =          2 seconds =       0.03 minutes
Total time:
	user time   =       1.44 seconds =       0.02 minutes
	system time =       0.09 seconds =       0.00 minutes
	total time  =          2 seconds =       0.03 minutes

    Psi4 stopped on: Tuesday, 05 May 2026 09:26AM
    Psi4 wall time for execution: 0:00:01.59

*** Psi4 exiting successfully. Buy a developer a beer!
