

     ************************************************************************
     *************** Dalton - An Electronic Structure Program ***************
     ************************************************************************

    This is output from DALTON release Dalton2025.0-dev (2025)
         ( Web site: http://daltonprogram.org )

   ----------------------------------------------------------------------------

    NOTE:
     
    Dalton is an experimental code for the evaluation of molecular
    properties using (MC)SCF, DFT, CI, and CC wave functions.
    The authors accept no responsibility for the performance of
    the code or for the correctness of the results.
     
    The code (in whole or part) is provided under a licence and
    is not to be reproduced for further distribution without
    the written permission of the authors or their representatives.
     
    See the home page "http://daltonprogram.org" for further information.
     
    If results obtained with this code are published,
    the appropriate citations would be both of:
     
       K. Aidas, C. Angeli, K. L. Bak, V. Bakken,
       R. Bast, L. Boman, O. Christiansen, R. Cimiraglia,
       S. Coriani, P. Dahle, E. K. Dalskov, U. Ekstroem,
       T. Enevoldsen, J. J. Eriksen, P. Ettenhuber, B. Fernandez,
       L. Ferrighi, H. Fliegl, L. Frediani, K. Hald, A. Halkier,
       C. Haettig, H. Heiberg, T. Helgaker, A. C. Hennum,
       H. Hettema, E. Hjertenaes, S. Hoest, I.-M. Hoeyvik,
       M. F. Iozzi, B. Jansik, H. J. Aa. Jensen, D. Jonsson,
       P. Joergensen, J. Kauczor, S. Kirpekar,
       T. Kjaergaard, W. Klopper, S. Knecht, R. Kobayashi, H. Koch,
       J. Kongsted, A. Krapp, K. Kristensen, A. Ligabue,
       O. B. Lutnaes, J. I. Melo, K. V. Mikkelsen, R. H. Myhre,
       C. Neiss, C. B. Nielsen, P. Norman, J. Olsen,
       J. M. H. Olsen, A. Osted, M. J. Packer, F. Pawlowski,
       T. B. Pedersen, P. F. Provasi, S. Reine, Z. Rinkevicius,
       T. A. Ruden, K. Ruud, V. Rybkin, P. Salek, C. C. M. Samson,
       A. Sanchez de Meras, T. Saue, S. P. A. Sauer,
       B. Schimmelpfennig, K. Sneskov, A. H. Steindal,
       K. O. Sylvester-Hvid, P. R. Taylor, A. M. Teale,
       E. I. Tellgren, D. P. Tew, A. J. Thorvaldsen, L. Thoegersen,
       O. Vahtras, M. A. Watson, D. J. D. Wilson, M. Ziolkowski
       and H. Agren,
       "The Dalton quantum chemistry program system",
       WIREs Comput. Mol. Sci. 2014, 4:269-284 (doi: 10.1002/wcms.1172)
     
    and
     
       Dalton, a molecular electronic structure program,
       Release Dalton2025.0-dev (2025), see http://daltonprogram.org
   ----------------------------------------------------------------------------

    Authors in alphabetical order (Major contribution(s) in parenthesis):

  Kestutis Aidas,              Vilnius University,        Lithuania   (QM/MM)
  Celestino Angeli,            University of Ferrara,     Italy       (NEVPT2)
  Juan J. Aucar,               Northeast National UniversiArgentina   (LRESC, Relativistic Effects on NMR Shieldings and EFG)
  Keld L. Bak,                 UNI-C,                     Denmark     (AOSOPPA, non-adiabatic coupling, magnetic properties)
  Vebjoern Bakken,             University of Oslo,        Norway      (DALTON; geometry optimizer, symmetry detection)
  Radovan Bast,                UiT The Arctic U. of NorwayNorway      (DALTON installation and execution frameworks)
  Pablo Baudin,                University of Valencia,    Spain       (Cholesky excitation energies)
  Linus Boman,                 NTNU,                      Norway      (Cholesky decomposition and subsystems)
  Bruno N. Cabral Tenorio,     Technical Univ. of Denmark,Denmark     (Lanczos-based CC methods)
  Ove Christiansen,            Aarhus University,         Denmark     (CC module)
  Renzo Cimiraglia,            University of Ferrara,     Italy       (NEVPT2)
  Sonia Coriani,               Technical Univ. of Denmark,Denmark     (CC and RESPONS modules)
  Janusz Cukras,               University of Warsaw,      Poland      (MChD in RESPONS)
  Paal Dahle,                  University of Oslo,        Norway      (Parallelization)
  Erik K. Dalskov,             UNI-C,                     Denmark     (SOPPA)
  Thomas Enevoldsen,           Univ. of Southern Denmark, Denmark     (SOPPA)
  Janus J. Eriksen,            Aarhus University,         Denmark     (Polarizable embedding, TDA)
  Rasmus Faber,                Technical Univ. of Denmark,Denmark     (Vib.avg. NMR w. SOPPA, parallel AO-SOPPA, CVS-CC and EOMCC)
  Tobias Fahleson,             KTH Stockholm,             Sweden      (Damped cubic response)
  Berta Fernandez,             U. of Santiago de CompostelSpain       (Doublet spin, ESR in RESPONS)
  Lara Ferrighi,               Aarhus University,         Denmark     (PCM Cubic response)
  Heike Fliegl,                University of Oslo,        Norway      (CCSD(R12))
  Luca Frediani,               UiT The Arctic U. of NorwayNorway      (PCM)
  Emmanuel Fromager,           Univ. Strasbourg,          France      (MC-srDFT)
  Bin Gao,                     UiT The Arctic U. of NorwayNorway      (Gen1Int library)
  Andre S. P. Gomes,           CNRS/Universite de Lille,  France      (Frozen density embedding)
  Christof Haettig,            Ruhr-University Bochum,    Germany     (CC module)
  Kasper Hald,                 Aarhus University,         Denmark     (CC module)
  Asger Halkier,               Aarhus University,         Denmark     (CC module)
  Frederik Beyer Hansen,       University of Copenhagen,  Denmark     (Parallel AO-SOPPA)
  Erik D. Hedegaard,           Univ. of Southern Denmark, Denmark     (Polarizable embedding, QM/MM, and MC-srDFT)
  Hanne Heiberg,               University of Oslo,        Norway      (Geometry analysis, selected one-electron integrals)
  Trygve Helgaker,             University of Oslo,        Norway      (DALTON; ABACUS, ERI, DFT modules, London, and much more)
  Alf Christian Hennum,        University of Oslo,        Norway      (Parity violation)
  Hinne Hettema,               University of Auckland,    New Zealand (Quadratic response in RESPONS; SIRIUS supersymmetry)
  Andreas E. Hillers-Bendtsen, University of Copenhagen,  Denmark     (MP3)
  Eirik Hjertenaes,            NTNU,                      Norway      (Cholesky decomposition)
  Nicolai Machholdt Hoeyer,    Aarhus University,         Denmark     (MP3)
  Pi A. B. Haase,              University of Copenhagen,  Denmark     (Triplet AO-SOPPA)
  Maria Francesca Iozzi,       University of Oslo,        Norway      (RPA)
  Christoph Jacob,             TU Braunschweig            Germany     (Frozen density embedding)
  Brano Jansik,                Technical Univ. of Ostrava Czech Rep.  (DFT cubic response)
  Hans Joergen Aa. Jensen,     Univ. of Southern Denmark, Denmark     (DALTON; SIRIUS, RESPONS, ABACUS, MC-srDFT, and much more)
  Dan Jonsson,                 UiT The Arctic U. of NorwayNorway      (Cubic response in RESPONS module)
  Poul Joergensen,             Aarhus University,         Denmark     (RESPONS, ABACUS, and CC modules)
  Maciej Kaminski,             University of Warsaw,      Poland      (CPPh in RESPONS)
  Joanna Kauczor,              Linkoeping University,     Sweden      (Complex polarization propagator (CPP) module)
  Sheela Kirpekar,             Univ. of Southern Denmark, Denmark     (Mass-velocity & Darwin integrals)
  Frederik Oersted Kjeldal,    Technical Univ. of Denmark,Denmark     (MP3)
  Erik Kjellgren,              Univ. of Southern Denmark, Denmark     (MC-srDFT)
  Wim Klopper,                 KIT Karlsruhe,             Germany     (R12 code in CC, SIRIUS, and ABACUS modules)
  Stefan Knecht,               ETH Zurich,                Switzerland (Parallel CI and MCSCF, MC-srDFT)
  Rika Kobayashi,              Australian National Univ., Australia   (DIIS in CC, London in MCSCF)
  Henrik Koch,                 NTNU,                      Norway      (CC module, Cholesky decomposition)
  Jacob Kongsted,              Univ. of Southern Denmark, Denmark     (Polarizable embedding, polarizable density embedding, QM/MM)
  Andrea Ligabue,              University of Modena,      Italy       (CTOCD, AOSOPPA)
  Nanna H. List,               Univ. of Southern Denmark, Denmark     (Polarizable embedding)
  Ola B. Lutnaes,              University of Oslo,        Norway      (DFT Hessian)
  Juan I. Melo,                University of Buenos Aires,Argentina   (LRESC, Relativistic Effects on NMR Shieldings)
  Kurt V. Mikkelsen,           University of Copenhagen,  Denmark     (MC-SCRF, QM/MM, and MP3)
  Rolf H. Myhre,               NTNU,                      Norway      (Subsystems and CC3)
  Christian Neiss,             Univ. Erlangen-Nuernberg,  Germany     (CCSD(R12))
  Christian B. Nielsen,        University of Copenhagen,  Denmark     (QM/MM)
  Patrick Norman,              KTH Stockholm,             Sweden      (Cubic response and complex frequency response in RESPONS)
  Jeppe Olsen,                 Aarhus University,         Denmark     (SIRIUS CI/density modules)
  Jogvan Magnus H. Olsen,      Aarhus University,         Denmark     (Polarizable embedding and polarizable density embedding)
  Anders Osted,                Copenhagen University,     Denmark     (QM/MM)
  Martin J. Packer,            University of Sheffield,   UK          (SOPPA)
  Filip Pawlowski,             Kazimierz Wielki UniversityPoland      (CC3)
  Morten N. Pedersen,          Univ. of Southern Denmark, Denmark     (Polarizable embedding)
  Thomas B. Pedersen,          University of Oslo,        Norway      (Cholesky decomposition)
  Patricio F. Provasi,         University of Northeastern,Argentina   (Analysis of coupling constants in localized orbitals)
  Peter Reinholdt,             Univ. of Southern Denmark, Denmark     (Polarizable embedding and polarizable density embedding)
  Zilvinas Rinkevicius,        KTH Stockholm,             Sweden      (open-shell DFT, ESR)
  Elias Rudberg,               KTH Stockholm,             Sweden      (DFT grid and basis info)
  Torgeir A. Ruden,            University of Oslo,        Norway      (Numerical derivatives in ABACUS)
  Kenneth Ruud,                UiT The Arctic U. of NorwayNorway      (DALTON; ABACUS magnetic properties and much more)
  Pawel Salek,                 KTH Stockholm,             Sweden      (DALTON; DFT code)
  Claire C. M. Samson,         University of Karlsruhe    Germany     (Boys localization, r12 integrals in ERI)
  Alfredo Sanchez de Meras,    University of Valencia,    Spain       (CC module, Cholesky decomposition)
  Trond Saue,                  Paul Sabatier University,  France      (direct Fock matrix construction)
  Stephan P. A. Sauer,         University of Copenhagen,  Denmark     (SOPPA(CCSD), SOPPA prop., AOSOPPA, vibrational g-factors)
  Bernd Schimmelpfennig,       Forschungszentrum KarlsruheGermany     (AMFI module)
  Anna K. Schnack-Petersen,    University of Copenhagen,  Denmark     (RPA(D) and HRPA(D) properties in AOSOPPA)
  Kristian Sneskov,            Aarhus University,         Denmark     (Polarizable embedding, QM/MM)
  Arnfinn H. Steindal,         UiT The Arctic U. of NorwayNorway      (parallel QM/MM, polarizable embedding)
  Casper Steinmann,            Aalborg University,        Denmark     (QFIT, polarizable embedding)
  K. O. Sylvester-Hvid,        University of Copenhagen,  Denmark     (MC-SCRF)
  Peter R. Taylor,             VLSCI/Univ. of Melbourne,  Australia   (Symmetry handling ABACUS, integral transformation)
  Andrew M. Teale,             University of Nottingham,  England     (DFT-AC, DFT-D)
  David P. Tew,                University of Bristol,     England     (CCSD(R12))
  Julien Toulouse,             Sorbonne Univ.,            France      (MC-srDFT)
  Olav Vahtras,                KTH Stockholm,             Sweden      (Triplet response, spin-orbit, ESR, TDDFT, open-shell DFT)
  Lucas Visscher,              Vrije Universiteit AmsterdaNetherlands (Frozen density embedding)
  David J. Wilson,             La Trobe University,       Australia   (DFT Hessian and DFT magnetizabilities)
  Luna Zamok,                  University of Copenhagen,  Denmark     (Block Lanczos RPA solver in SOPPA module)
  Hans Agren,                  KTH Stockholm,             Sweden      (SIRIUS module, RESPONS, MC-SCRF solvation)
 --------------------------------------------------------------------------------

     Date and time (Linux)  : Thu May  7 16:45:41 2026
     Host name              : debian                                  

 * Work memory size             :    64000000 =  488.28 megabytes.

 * Directories for basis set searches:
   1) /home/vdwv/DIPLOM_ITMO/CALCULATIONS_AND_SOFTS/softwares/Dalton_Shenanigans/dalton/dalton/build/diplom_files/c6h6_benzene/dft/c6h6_benzene_dft_b3lyp_6-31g
   2) /home/vdwv/DIPLOM_ITMO/CALCULATIONS_AND_SOFTS/softwares/Dalton_Shenanigans/dalton/dalton/build/basis


Compilation information
-----------------------

 Who compiled             | vdwv
 Host                     | debian
 System                   | Linux-6.12.73+deb13-amd64
 CMake generator          | Unix Makefiles
 Processor                | x86_64
 64-bit integers          | OFF
 MPI                      | OFF
 Fortran compiler         | /usr/bin/gfortran
 Fortran compiler version | GNU Fortran (Debian 14.2.0-19) 14.2.0
 C compiler               | /usr/bin/gcc
 C compiler version       | gcc (Debian 14.2.0-19) 14.2.0
 C++ compiler             | /usr/bin/g++
 C++ compiler version     | g++ (Debian 14.2.0-19) 14.2.0
 BLAS                     | /opt/intel/oneapi/mkl/2025.3/lib/intel64/libmkl_gf
                          | _lp64.so;/opt/intel/oneapi/mkl/2025.3/lib/intel64/
                          | libmkl_sequential.so;/opt/intel/oneapi/mkl/2025.3/
                          | lib/intel64/libmkl_core.so;/usr/lib/x86_64-linux-g
                          | nu/libpthread.a;/usr/lib/x86_64-linux-gnu/libm.so
 LAPACK                   | /opt/intel/oneapi/mkl/2025.3/lib/intel64/libmkl_la
                          | pack95_lp64.a;/opt/intel/oneapi/mkl/2025.3/lib/int
                          | el64/libmkl_gf_lp64.so
 Static linking           | OFF
 Last Git revision        | 1892235f9264b9be21ec2fefe6e0081d659ab244
 Git branch               | master
 Configuration time       | 2026-05-04 17:50:26.788788

 * Sequential calculation.


   Content of the .dal input file
 ----------------------------------

BASIS
6-31G
Benzene C6H6 using the 6-31G basis
Using automatic symmetry detection
AtomTypes=2 Angstrom
Charge=6.0 Atoms=6
C1    0.000      1.400      0.000
C2    1.213      0.700      0.000
C3    1.213     -0.700      0.000
C4    0.000     -1.400      0.000
C5   -1.213     -0.700      0.000
C6   -1.213      0.700      0.000
Charge=1.0 Atoms=6
H7    0.000      2.486      0.000
H8    2.153      1.243      0.000
H9    2.153     -1.243      0.000
H10   0.000     -2.486      0.000
H11  -2.153     -1.243      0.000
H12  -2.153      1.243      0.000

**DALTON INPUT
.RUN WAVE FUN
**WAVE FUN
.DFT
 B3LYP
**END OF



       *******************************************************************
       *********** Output from DALTON general input processing ***********
       *******************************************************************

 --------------------------------------------------------------------------------
   Overall default print level:    0
   Print level for DALTON.STAT:    1

    HERMIT 1- and 2-electron integral sections will be executed
    "Old" integral transformation used (limited to max 255 basis functions)
    Wave function sections will be executed (SIRIUS module)
 --------------------------------------------------------------------------------


   ****************************************************************************
   *************** Output of molecule and basis set information ***************
   ****************************************************************************


    The two title cards from your ".mol" input:
    --------------------------------------------------------------------------------
 1: Benzene C6H6 using the 6-31G basis
 2: Using automatic symmetry detection
    --------------------------------------------------------------------------------

  Coordinates are entered in Angstrom and converted to atomic units.
          - Conversion factor : 1 bohr = 0.52917721080 A

  Atomic type no.    1
  --------------------
  Nuclear charge:   6.00000
  Number of symmetry independent centers:    6
  Number of basis sets to read;    2
  Basis set file used for this atomic type with Z =   6 :
     "/home/vdwv/DIPLOM_ITMO/CALCULATIONS_AND_SOFTS/softwares/Dalton_Shenanigans/dalton/dalton/build/basis/6-31G"

  Info about the basis set file: your basis has no documentation.
  Basis set: 6-31G                                                                           

  Atomic type no.    2
  --------------------
  Nuclear charge:   1.00000
  Number of symmetry independent centers:    6
  Number of basis sets to read;    2
  Basis set file used for this atomic type with Z =   1 :
     "/home/vdwv/DIPLOM_ITMO/CALCULATIONS_AND_SOFTS/softwares/Dalton_Shenanigans/dalton/dalton/build/basis/6-31G"

  Info about the basis set file: your basis has no documentation.
  Basis set: 6-31G                                                                           


                      SYMADD: Addition of symmetry requested
                      --------------------------------------

 Symmetry test threshold:  5.00E-06

@  The molecule has been centered at center of mass and rotated
@  so the principal axes of inertia are along coordinate axes.

 Symmetry class found: D(2h)          

 Symmetry Independent Centres             
 ----------------------------
C1     6 :      0.00000000     2.64561657     0.00000000  Isotope  1
C2     6 :      2.29223779     1.32280829     0.00000000  Isotope  1
H7     1 :      0.00000000     4.69785915     0.00000000  Isotope  1
H8     1 :      4.06858035     2.34892957     0.00000000  Isotope  1

 The following symmetry elements were found:   X  Y  Z  


                         SYMGRP: Point group information
                         -------------------------------

@    Full point group is: D(2h)          
@    Represented as:      D2h

@  * The irrep name for each symmetry:    1: Ag     2: B3u    3: B2u    4: B1g    5: B1u    6: B2g    7: B3g    8: Au 


   * The point group was generated by:

      Reflection in the yz-plane
      Reflection in the xz-plane
      Reflection in the xy-plane

   * Group multiplication table

        |  E   C2z  C2y  C2x   i   Oxy  Oxz  Oyz
   -----+----------------------------------------
     E  |  E   C2z  C2y  C2x   i   Oxy  Oxz  Oyz
    C2z | C2z   E   C2x  C2y  Oxy   i   Oyz  Oxz
    C2y | C2y  C2x   E   C2z  Oxz  Oyz   i   Oxy
    C2x | C2x  C2y  C2z   E   Oyz  Oxz  Oxy   i 
     i  |  i   Oxy  Oxz  Oyz   E   C2z  C2y  C2x
    Oxy | Oxy   i   Oyz  Oxz  C2z   E   C2x  C2y
    Oxz | Oxz  Oyz   i   Oxy  C2y  C2x   E   C2z
    Oyz | Oyz  Oxz  Oxy   i   C2x  C2y  C2z   E 

   * Character table

        |  E   C2z  C2y  C2x   i   Oxy  Oxz  Oyz
   -----+----------------------------------------
    Ag  |   1    1    1    1    1    1    1    1
    B3u |   1   -1   -1    1   -1    1    1   -1
    B2u |   1   -1    1   -1   -1    1   -1    1
    B1g |   1    1   -1   -1    1    1   -1   -1
    B1u |   1    1   -1   -1   -1   -1    1    1
    B2g |   1   -1    1   -1    1   -1    1   -1
    B3g |   1   -1   -1    1    1   -1   -1    1
    Au  |   1    1    1    1   -1   -1   -1   -1

   * Direct product table

        | Ag   B3u  B2u  B1g  B1u  B2g  B3g  Au 
   -----+----------------------------------------
    Ag  | Ag   B3u  B2u  B1g  B1u  B2g  B3g  Au 
    B3u | B3u  Ag   B1g  B2u  B2g  B1u  Au   B3g
    B2u | B2u  B1g  Ag   B3u  B3g  Au   B1u  B2g
    B1g | B1g  B2u  B3u  Ag   Au   B3g  B2g  B1u
    B1u | B1u  B2g  B3g  Au   Ag   B3u  B2u  B1g
    B2g | B2g  B1u  Au   B3g  B3u  Ag   B1g  B2u
    B3g | B3g  Au   B1u  B2g  B2u  B1g  Ag   B3u
    Au  | Au   B3g  B2g  B1u  B1g  B2u  B3u  Ag 


                                 Isotopic Masses
                                 ---------------

                           C1  _1     12.000000
                           C1  _2     12.000000
                           C2  _1     12.000000
                           C2  _2     12.000000
                           C2  _3     12.000000
                           C2  _4     12.000000
                           H7  _1      1.007825
                           H7  _2      1.007825
                           H8  _1      1.007825
                           H8  _2      1.007825
                           H8  _3      1.007825
                           H8  _4      1.007825

                       Total mass:    78.046950 amu
                       Natural abundance:  93.495 %

 Center-of-mass coordinates (a.u.):    0.000000    0.000000    0.000000
 Center-of-mass coordinates (Angs):    0.000000    0.000000    0.000000


  Atoms and basis sets
  --------------------

  Number of atom types :    2
  Total number of atoms:   12

  Basis set used is "6-31G" from the basis set library.

  label    atoms   charge   prim   cont     basis
  ----------------------------------------------------------------------
  C2          6    6.0000    22     9      [10s4p|3s2p]                                       
  H8          6    1.0000     4     2      [4s|2s]                                            
  ----------------------------------------------------------------------
  total:     12   42.0000   156    66
  ----------------------------------------------------------------------

  Threshold for neglecting AO integrals:  1.00D-12


  Cartesian Coordinates (bohr)
  ----------------------------

  Total number of coordinates:   36
  C1  / 1 :     1  x   0.0000000000    2  y   2.6456165750    3  z   0.0000000000
  C1  / 2 :     4  x   0.0000000000    5  y  -2.6456165750    6  z   0.0000000000
  C2  / 1 :     7  x   2.2922377896    8  y   1.3228082875    9  z   0.0000000000
  C2  / 2 :    10  x  -2.2922377896   11  y   1.3228082875   12  z   0.0000000000
  C2  / 3 :    13  x   2.2922377896   14  y  -1.3228082875   15  z   0.0000000000
  C2  / 4 :    16  x  -2.2922377896   17  y  -1.3228082875   18  z   0.0000000000
  H7  / 1 :    19  x   0.0000000000   20  y   4.6978591467   21  z   0.0000000000
  H7  / 2 :    22  x   0.0000000000   23  y  -4.6978591467   24  z   0.0000000000
  H8  / 1 :    25  x   4.0685803471   26  y   2.3489295734   27  z   0.0000000000
  H8  / 2 :    28  x  -4.0685803471   29  y   2.3489295734   30  z   0.0000000000
  H8  / 3 :    31  x   4.0685803471   32  y  -2.3489295734   33  z   0.0000000000
  H8  / 4 :    34  x  -4.0685803471   35  y  -2.3489295734   36  z   0.0000000000


  Cartesian Coordinates (xyz format; angstrom)
  --------------------------------------------

   12

  C        0.0000000000            1.4000000000            0.0000000000
  C        0.0000000000           -1.4000000000            0.0000000000
  C        1.2130000000            0.7000000000            0.0000000000
  C       -1.2130000000            0.7000000000            0.0000000000
  C        1.2130000000           -0.7000000000            0.0000000000
  C       -1.2130000000           -0.7000000000            0.0000000000
  H        0.0000000000            2.4860000000            0.0000000000
  H        0.0000000000           -2.4860000000            0.0000000000
  H        2.1530000000            1.2430000000            0.0000000000
  H       -2.1530000000            1.2430000000            0.0000000000
  H        2.1530000000           -1.2430000000            0.0000000000
  H       -2.1530000000           -1.2430000000            0.0000000000


  Symmetry Coordinates
  --------------------

  Number of coordinates in each symmetry:     6    6    6    6    4    2    4    2

  Symmetry  Ag  ( 1)

    1   C1    y    [  2  -    5 ]/2
    2   C2    x    [  7  -   10  +   13  -   16 ]/4
    3   C2    y    [  8  +   11  -   14  -   17 ]/4
    4   H7    y    [ 20  -   23 ]/2
    5   H8    x    [ 25  -   28  +   31  -   34 ]/4
    6   H8    y    [ 26  +   29  -   32  -   35 ]/4

  Symmetry  B3u ( 2)

    7   C1    x    [  1  +    4 ]/2
    8   C2    x    [  7  +   10  +   13  +   16 ]/4
    9   C2    y    [  8  -   11  -   14  +   17 ]/4
   10   H7    x    [ 19  +   22 ]/2
   11   H8    x    [ 25  +   28  +   31  +   34 ]/4
   12   H8    y    [ 26  -   29  -   32  +   35 ]/4

  Symmetry  B2u ( 3)

   13   C1    y    [  2  +    5 ]/2
   14   C2    x    [  7  -   10  -   13  +   16 ]/4
   15   C2    y    [  8  +   11  +   14  +   17 ]/4
   16   H7    y    [ 20  +   23 ]/2
   17   H8    x    [ 25  -   28  -   31  +   34 ]/4
   18   H8    y    [ 26  +   29  +   32  +   35 ]/4

  Symmetry  B1g ( 4)

   19   C1    x    [  1  -    4 ]/2
   20   C2    x    [  7  +   10  -   13  -   16 ]/4
   21   C2    y    [  8  -   11  +   14  -   17 ]/4
   22   H7    x    [ 19  -   22 ]/2
   23   H8    x    [ 25  +   28  -   31  -   34 ]/4
   24   H8    y    [ 26  -   29  +   32  -   35 ]/4

  Symmetry  B1u ( 5)

   25   C1    z    [  3  +    6 ]/2
   26   C2    z    [  9  +   12  +   15  +   18 ]/4
   27   H7    z    [ 21  +   24 ]/2
   28   H8    z    [ 27  +   30  +   33  +   36 ]/4

  Symmetry  B2g ( 6)

   29   C2    z    [  9  -   12  +   15  -   18 ]/4
   30   H8    z    [ 27  -   30  +   33  -   36 ]/4

  Symmetry  B3g ( 7)

   31   C1    z    [  3  -    6 ]/2
   32   C2    z    [  9  +   12  -   15  -   18 ]/4
   33   H7    z    [ 21  -   24 ]/2
   34   H8    z    [ 27  +   30  -   33  -   36 ]/4

  Symmetry  Au  ( 8)

   35   C2    z    [  9  -   12  -   15  +   18 ]/4
   36   H8    z    [ 27  -   30  -   33  +   36 ]/4


   Interatomic separations (in Angstrom):
   --------------------------------------

            C1  _1      C1  _2      C2  _1      C2  _2      C2  _3      C2  _4
            ------      ------      ------      ------      ------      ------
 C1  _1:    0.000000
 C1  _2:    2.800000    0.000000
 C2  _1:    1.400489    2.425153    0.000000
 C2  _2:    1.400489    2.425153    2.426000    0.000000
 C2  _3:    2.425153    1.400489    1.400000    2.800978    0.000000
 C2  _4:    2.425153    1.400489    2.800978    1.400000    2.426000    0.000000
 H7  _1:    1.086000    3.886000    2.158973    2.158973    3.409100    3.409100
 H7  _2:    3.886000    1.086000    3.409100    3.409100    2.158973    2.158973
 H8  _1:    2.158717    3.408938    1.085564    3.409517    2.158437    3.886542
 H8  _2:    2.158717    3.408938    3.409517    1.085564    3.886542    2.158437
 H8  _3:    3.408938    2.158717    2.158437    3.886542    1.085564    3.409517
 H8  _4:    3.408938    2.158717    3.886542    2.158437    3.409517    1.085564

            H7  _1      H7  _2      H8  _1      H8  _2      H8  _3      H8  _4
            ------      ------      ------      ------      ------      ------
 H7  _1:    0.000000
 H7  _2:    4.972000    0.000000
 H8  _1:    2.486053    4.305909    0.000000
 H8  _2:    2.486053    4.305909    4.306000    0.000000
 H8  _3:    4.305909    2.486053    2.486000    4.972105    0.000000
 H8  _4:    4.305909    2.486053    4.972105    2.486000    4.306000    0.000000


  Max    interatomic separation is    4.9721 Angstrom (    9.3959 Bohr)
  between atoms   11 and   10, "H8  _3" and "H8  _2".

  Min HX interatomic separation is    1.0856 Angstrom (    2.0514 Bohr)

  Min YX interatomic separation is    1.4000 Angstrom (    2.6456 Bohr)


  Bond distances (Angstrom):
  --------------------------

                  atom 1     atom 2       distance
                  ------     ------       --------
  bond distance:  C2  _1     C1  _1       1.400489
  bond distance:  C2  _2     C1  _1       1.400489
  bond distance:  C2  _3     C1  _2       1.400489
  bond distance:  C2  _3     C2  _1       1.400000
  bond distance:  C2  _4     C1  _2       1.400489
  bond distance:  C2  _4     C2  _2       1.400000
  bond distance:  H7  _1     C1  _1       1.086000
  bond distance:  H7  _2     C1  _2       1.086000
  bond distance:  H8  _1     C2  _1       1.085564
  bond distance:  H8  _2     C2  _2       1.085564
  bond distance:  H8  _3     C2  _3       1.085564
  bond distance:  H8  _4     C2  _4       1.085564


  Bond angles (degrees):
  ----------------------

                  atom 1     atom 2     atom 3         angle
                  ------     ------     ------         -----
  bond angle:     C2  _1     C1  _1     C2  _2       120.023
  bond angle:     C2  _1     C1  _1     H7  _1       119.988
  bond angle:     C2  _2     C1  _1     H7  _1       119.988
  bond angle:     C2  _3     C1  _2     C2  _4       120.023
  bond angle:     C2  _3     C1  _2     H7  _2       119.988
  bond angle:     C2  _4     C1  _2     H7  _2       119.988
  bond angle:     C1  _1     C2  _1     C2  _3       119.988
  bond angle:     C1  _1     C2  _1     H8  _1       119.998
  bond angle:     C2  _3     C2  _1     H8  _1       120.013
  bond angle:     C1  _1     C2  _2     C2  _4       119.988
  bond angle:     C1  _1     C2  _2     H8  _2       119.998
  bond angle:     C2  _4     C2  _2     H8  _2       120.013
  bond angle:     C1  _2     C2  _3     C2  _1       119.988
  bond angle:     C1  _2     C2  _3     H8  _3       119.998
  bond angle:     C2  _1     C2  _3     H8  _3       120.013
  bond angle:     C1  _2     C2  _4     C2  _2       119.988
  bond angle:     C1  _2     C2  _4     H8  _4       119.998
  bond angle:     C2  _2     C2  _4     H8  _4       120.013




 Principal moments of inertia (u*A**2) and principal axes
 --------------------------------------------------------

   IA      89.245668          1.000000    0.000000    0.000000
   IB      89.312436          0.000000    1.000000    0.000000
   IC     178.558104          0.000000    0.000000    1.000000


 Rotational constants
 --------------------

@    The molecule is planar.

               A                   B                   C

           5662.7847           5658.5513           2830.3336 MHz
            0.188890            0.188749            0.094410 cm-1


@  Nuclear repulsion energy :  202.766214134753 Hartree


  Symmetry Orbitals
  -----------------

  Number of orbitals in each symmetry:          16   11   16   11    4    2    4    2


  Symmetry  Ag ( 1)

    1     C1       1s         1 +    2
    2     C1       1s         3 +    4
    3     C1       1s         5 +    6
    4     C1       2py        9 -   10
    5     C1       2py       15 -   16
    6     C2       1s        19 +   20 +   21 +   22
    7     C2       1s        23 +   24 +   25 +   26
    8     C2       1s        27 +   28 +   29 +   30
    9     C2       2px       31 -   32 +   33 -   34
   10     C2       2py       35 +   36 -   37 -   38
   11     C2       2px       43 -   44 +   45 -   46
   12     C2       2py       47 +   48 -   49 -   50
   13     H7       1s        55 +   56
   14     H7       1s        57 +   58
   15     H8       1s        59 +   60 +   61 +   62
   16     H8       1s        63 +   64 +   65 +   66


  Symmetry  B3u( 2)

   17     C1       2px        7 +    8
   18     C1       2px       13 +   14
   19     C2       1s        19 -   20 +   21 -   22
   20     C2       1s        23 -   24 +   25 -   26
   21     C2       1s        27 -   28 +   29 -   30
   22     C2       2px       31 +   32 +   33 +   34
   23     C2       2py       35 -   36 -   37 +   38
   24     C2       2px       43 +   44 +   45 +   46
   25     C2       2py       47 -   48 -   49 +   50
   26     H8       1s        59 -   60 +   61 -   62
   27     H8       1s        63 -   64 +   65 -   66


  Symmetry  B2u( 3)

   28     C1       1s         1 -    2
   29     C1       1s         3 -    4
   30     C1       1s         5 -    6
   31     C1       2py        9 +   10
   32     C1       2py       15 +   16
   33     C2       1s        19 +   20 -   21 -   22
   34     C2       1s        23 +   24 -   25 -   26
   35     C2       1s        27 +   28 -   29 -   30
   36     C2       2px       31 -   32 -   33 +   34
   37     C2       2py       35 +   36 +   37 +   38
   38     C2       2px       43 -   44 -   45 +   46
   39     C2       2py       47 +   48 +   49 +   50
   40     H7       1s        55 -   56
   41     H7       1s        57 -   58
   42     H8       1s        59 +   60 -   61 -   62
   43     H8       1s        63 +   64 -   65 -   66


  Symmetry  B1g( 4)

   44     C1       2px        7 -    8
   45     C1       2px       13 -   14
   46     C2       1s        19 -   20 -   21 +   22
   47     C2       1s        23 -   24 -   25 +   26
   48     C2       1s        27 -   28 -   29 +   30
   49     C2       2px       31 +   32 -   33 -   34
   50     C2       2py       35 -   36 +   37 -   38
   51     C2       2px       43 +   44 -   45 -   46
   52     C2       2py       47 -   48 +   49 -   50
   53     H8       1s        59 -   60 -   61 +   62
   54     H8       1s        63 -   64 -   65 +   66


  Symmetry  B1u( 5)

   55     C1       2pz       11 +   12
   56     C1       2pz       17 +   18
   57     C2       2pz       39 +   40 +   41 +   42
   58     C2       2pz       51 +   52 +   53 +   54


  Symmetry  B2g( 6)

   59     C2       2pz       39 -   40 +   41 -   42
   60     C2       2pz       51 -   52 +   53 -   54


  Symmetry  B3g( 7)

   61     C1       2pz       11 -   12
   62     C1       2pz       17 -   18
   63     C2       2pz       39 +   40 -   41 -   42
   64     C2       2pz       51 +   52 -   53 -   54


  Symmetry  Au ( 8)

   65     C2       2pz       39 -   40 -   41 +   42
   66     C2       2pz       51 -   52 -   53 +   54

  Symmetries of electric field:  B3u(2)  B2u(3)  B1u(5)

  Symmetries of magnetic field:  B3g(7)  B2g(6)  B1g(4)


                     .---------------------------------------.
                     | Starting in Integral Section (HERMIT) |
                     `---------------------------------------'



 ***************************************************************************************
 ****************** Output from **INTEGRALS input processing (HERMIT) ******************
 ***************************************************************************************


 - Using defaults, no **INTEGRALS input found

 Default print level:        1

 Calculation of one- and two-electron Hamiltonian integrals.

 Center of mass  (bohr):      0.000000000000      0.000000000000      0.000000000000
 Operator center (bohr):      0.000000000000      0.000000000000      0.000000000000
 Gauge origin    (bohr):      0.000000000000      0.000000000000      0.000000000000
 Dipole origin   (bohr):      0.000000000000      0.000000000000      0.000000000000

Calculation of 2-electron integrals are postponed until they are needed.


     ************************************************************************
     ************************** Output from HERINT **************************
     ************************************************************************



                      Nuclear contribution to dipole moments
                      --------------------------------------

                    All dipole components are zero by symmetry


  Total CPU  time used in HERMIT:   0.03 seconds
  Total wall time used in HERMIT:   0.03 seconds


                        .----------------------------------.
                        | End of Integral Section (HERMIT) |
                        `----------------------------------'



                   .--------------------------------------------.
                   | Starting in Wave Function Section (SIRIUS) |
                   `--------------------------------------------'


 *** Output from Huckel module :

     Using EWMO model:          F
     Using EHT  model:          T
     Number of Huckel orbitals each symmetry:    9    6    9    6    2    1    2    1

 Huckel EHT eigenvalues for symmetry :  1
          -11.413194     -11.376824      -1.563961      -0.876811      -0.787301
           -0.416451      -0.217750      -0.211259      -0.178249

 Huckel EHT eigenvalues for symmetry :  2
          -11.394574      -1.215834      -0.533141      -0.492839      -0.203537
           -0.168395

 Huckel EHT eigenvalues for symmetry :  3
          -11.394517     -11.362456      -1.215603      -0.627900      -0.532975
           -0.237767      -0.203563      -0.168383      -0.161551

 Huckel EHT eigenvalues for symmetry :  4
          -11.376846      -0.876835      -0.416454      -0.217676      -0.178182
           -0.164968

 Huckel EHT eigenvalues for symmetry :  5
           -0.703301      -0.289845

 Huckel EHT eigenvalues for symmetry :  6
           -0.459586

 Huckel EHT eigenvalues for symmetry :  7
           -0.459450      -0.239423

 Huckel EHT eigenvalues for symmetry :  8
           -0.289795

 **********************************************************************
 *SIRIUS* a direct, restricted step, second order MCSCF program       *
 **********************************************************************

 
     Date and time (Linux)  : Thu May  7 16:45:41 2026
     Host name              : debian                                  

 Title lines from ".mol" input file:
     Benzene C6H6 using the 6-31G basis
     Using automatic symmetry detection

 Print level on unit LUPRI =   2 is   0
 Print level on unit LUW4  =   2 is   5

@    Restricted, closed shell Kohn-Sham DFT calculation.

 Initial molecular orbitals are obtained according to
 ".MOSTART EHT   " input option

     Wave function specification
     ============================
@    Wave function type        --- KS-DFT ---
@    Number of closed shell electrons          42
@    Number of electrons in active shells       0
@    Total charge of the molecule               0

@    Spin multiplicity and 2 M_S                1         0
@    Total number of symmetries                 8 (point group: D2h)
@    Reference state symmetry                   1 (irrep name : Ag )
 
     This is a DFT calculation of type: B3LYP
 Weighted mixed functional:
               HF exchange:    0.20000
                       VWN:    0.19000
                       LYP:    0.81000
                     Becke:    0.72000
                    Slater:    0.80000

     Orbital specifications
     ======================
@    Abelian symmetry species          All |    1    2    3    4    5    6    7    8
@                                          |  Ag   B3u  B2u  B1g  B1u  B2g  B3g  Au 
                                       --- |  ---  ---  ---  ---  ---  ---  ---  ---
@    Total number of orbitals           66 |   16   11   16   11    4    2    4    2
@    Number of basis functions          66 |   16   11   16   11    4    2    4    2

      ** Automatic occupation of RKS orbitals **

      -- Initial occupation of symmetries is determined from extended Huckel guess.           
      -- Initial occupation of symmetries is :
@    Occupied SCF orbitals              21 |    6    4    5    3    1    1    1    0

     Maximum number of Fock   iterations      0
     Maximum number of DIIS   iterations     60
     Maximum number of QC-SCF iterations     60
     Threshold for SCF convergence     1.00D-05
 
     This is a DFT calculation of type: B3LYP
 Weighted mixed functional:
               HF exchange:    0.20000
                       VWN:    0.19000
                       LYP:    0.81000
                     Becke:    0.72000
                    Slater:    0.80000


 ***********************************************
 ***** DIIS acceleration of SCF iterations *****
 ***********************************************

 C1-DIIS algorithm; max error vectors =    8

 Automatic occupation of symmetries with  42 electrons.

 Iter     Total energy    Error norm  Delta(E)    SCF occupation
 -----------------------------------------------------------------------------

---> (Re)generating AOTWOINT


     ************************************************************************
     ************************** Output from HERINT **************************
     ************************************************************************


***  INFO  GETGAB: GABSO--- not found on AOGABINT. Regenerating.

 Threshold for neglecting two-electron integrals:  1.00D-12
 HERMIT - Number of two-electron integrals written:      360472 ( 14.7% )
 HERMIT - Megabytes written:                              4.257

  Total CPU  time used in TWOINT:   0.30 seconds
  Total wall time used in TWOINT:   0.29 seconds
  Time used in TWOINT     is       0.34 seconds
      K-S energy, electrons, error :    -27.199896775686  42.0000015649    1.56D-06
@  1  -231.206526642       4.11D+00  -2.31D+02     6   4   5   3   1   1   1   0
      Virial theorem: -V/T =      2.018849
@    MULPOP   C1  _1  0.21; C1  _2  0.21; C2  _1  0.21; C2  _2  0.21; C2  _3  0.21; C2  _4  0.21; H7  _1 -0.21; H7  _2 -0.21; H8  _1 -0.21; H8  _2 -0.21; 
@             H8  _3 -0.21; H8  _4 -0.21; 
   1  Level shift: doubly occupied orbital energies shifted by -2.00D-01
 -----------------------------------------------------------------------------
      K-S energy, electrons, error :    -28.362948324896  41.9999966688   -3.33D-06
@  2  -231.881796072       1.50D+00  -6.75D-01     6   4   5   3   1   1   1   0
      Virial theorem: -V/T =      1.991894
@    MULPOP   C1  _1 -0.24; C1  _2 -0.24; C2  _1 -0.24; C2  _2 -0.24; C2  _3 -0.24; C2  _4 -0.24; H7  _1  0.24; H7  _2  0.24; H8  _1  0.24; H8  _2  0.24; 
@             H8  _3  0.24; H8  _4  0.24; 
   2  Level shift: doubly occupied orbital energies shifted by -1.00D-01
 -----------------------------------------------------------------------------
      K-S energy, electrons, error :    -27.910319799418  42.0000007386    7.39D-07
@  3  -232.033702686       3.86D-01  -1.52D-01     6   4   5   3   1   1   1   0
      Virial theorem: -V/T =      2.008064
@    MULPOP   C1  _1 -0.08; C1  _2 -0.08; C2  _1 -0.08; C2  _2 -0.08; C2  _3 -0.08; C2  _4 -0.08; H7  _1  0.08; H7  _2  0.08; H8  _1  0.08; H8  _2  0.08; 
@             H8  _3  0.08; H8  _4  0.08; 
   3  Level shift: doubly occupied orbital energies shifted by -5.00D-02
 -----------------------------------------------------------------------------
      K-S energy, electrons, error :    -27.986796344911  42.0000001646    1.65D-07
@  4  -232.044345323       1.96D-02  -1.06D-02     6   4   5   3   1   1   1   0
      Virial theorem: -V/T =      2.005376
@    MULPOP   C1  _1 -0.12; C1  _2 -0.12; C2  _1 -0.12; C2  _2 -0.12; C2  _3 -0.12; C2  _4 -0.12; H7  _1  0.12; H7  _2  0.12; H8  _1  0.12; H8  _2  0.12; 
@             H8  _3  0.12; H8  _4  0.12; 
   4  Level shift: doubly occupied orbital energies shifted by -1.25D-02
 -----------------------------------------------------------------------------
      K-S energy, electrons, error :    -27.992943813093  42.0000001921    1.92D-07
@  5  -232.044377142       1.59D-03  -3.18D-05     6   4   5   3   1   1   1   0
      Virial theorem: -V/T =      2.005185
@    MULPOP   C1  _1 -0.12; C1  _2 -0.12; C2  _1 -0.12; C2  _2 -0.12; C2  _3 -0.12; C2  _4 -0.12; H7  _1  0.12; H7  _2  0.12; H8  _1  0.12; H8  _2  0.12; 
@             H8  _3  0.12; H8  _4  0.12; 
 -----------------------------------------------------------------------------
      K-S energy, electrons, error :    -27.992707579626  42.0000001949    1.95D-07
@  6  -232.044377365       4.99D-04  -2.23D-07     6   4   5   3   1   1   1   0
      Virial theorem: -V/T =      2.005192
@    MULPOP   C1  _1 -0.12; C1  _2 -0.12; C2  _1 -0.12; C2  _2 -0.12; C2  _3 -0.12; C2  _4 -0.12; H7  _1  0.12; H7  _2  0.12; H8  _1  0.12; H8  _2  0.12; 
@             H8  _3  0.12; H8  _4  0.12; 
 -----------------------------------------------------------------------------
      K-S energy, electrons, error :    -27.992691539242  42.0000001951    1.95D-07
@  7  -232.044377380       1.59D-04  -1.47D-08     6   4   5   3   1   1   1   0
      Virial theorem: -V/T =      2.005192
@    MULPOP   C1  _1 -0.12; C1  _2 -0.12; C2  _1 -0.12; C2  _2 -0.12; C2  _3 -0.12; C2  _4 -0.12; H7  _1  0.12; H7  _2  0.12; H8  _1  0.12; H8  _2  0.12; 
@             H8  _3  0.12; H8  _4  0.12; 
 -----------------------------------------------------------------------------
      K-S energy, electrons, error :    -27.992678863146  42.0000001954    1.95D-07
@  8  -232.044377382       3.12D-06  -1.67D-09     6   4   5   3   1   1   1   0

@ *** DIIS converged in   8 iterations !
@     Converged SCF energy, gradient:   -232.044377381656    3.12D-06
    - total time used in SIRFCK :              0.40 seconds


 *** SCF orbital energy analysis ***

 Only the 20 lowest virtual orbital energies printed in each symmetry.

 Number of electrons        :   42
 Closed shell orbitals      :    6    4    5    3    1    1    1    0

 Sym       Kohn-Sham orbital energies

1 Ag    -10.18194333   -10.18130880    -0.84778811    -0.59765685    -0.51922435
         -0.33883605     0.09588601     0.18419810     0.30629178     0.59476627
          0.62520967     0.63750545     0.86316072     0.97366610     1.13035324
          1.46611344

2 B3u   -10.18172325    -0.74055773    -0.44025546    -0.41828509     0.14705824
          0.32423886     0.50043364     0.67026921     0.90658292     1.00877704
          1.19413359

3 B2u   -10.18176081   -10.18109823    -0.74034992    -0.45708451    -0.41803289
          0.14704069     0.19328265     0.32434241     0.54492586     0.67048323
          0.84890354     0.90635804     1.00890342     1.19442593     1.22479378
          1.91036880

4 B1g   -10.18127093    -0.59763632    -0.33885081     0.18428111     0.30650535
          0.56134403     0.62554755     0.86347300     0.97632721     1.13045168
          1.46611212

5 B1u    -0.35809855     0.00714385     0.52948066     0.67078801

6 B2g    -0.24488385     0.61411237

7 B3g    -0.24473057     0.16392063     0.61417445     0.74543231

8 Au      0.00723177     0.67081252

    E(LUMO) :     0.00714385 au (symmetry 5)
  - E(HOMO) :    -0.24473057 au (symmetry 7)
  ------------------------------------------
    gap     :     0.25187442 au

 NOTE: MOLECULAR ORBITALS ARE NOT CANONICAL HARTREE-FOCK ORBITALS

 Largest off-diagonal Fock matrix element is  1.56D-04

 --- Writing SIRIFC interface file

--------------------------------------------------------------------------------


     .-----------------------------------------------.
     | DFT KT IPs [a.u. & eV] from Koopmans' theorem |
     `-----------------------------------------------'


     DFT KT symmetry 1 ( Ag ) in point group D2h -- 6 principal poles with pole strength 1

   ============  ============  ============  ============  ============
      10.181943     10.181309      0.847788      0.597657      0.519224
     277.064772    277.047506     23.069488     16.263070     14.128813
   ============  ============  ============  ============  ============

   ============
       0.338836
       9.220198
   ============

     DFT KT symmetry 2 ( B3u) in point group D2h -- 4 principal poles with pole strength 1

   ============  ============  ============  ============
      10.181723      0.740558      0.440255      0.418285
     277.058783     20.151601     11.979961     11.382116
   ============  ============  ============  ============

     DFT KT symmetry 3 ( B2u) in point group D2h -- 5 principal poles with pole strength 1

   ============  ============  ============  ============  ============
      10.181761     10.181098      0.740350      0.457085      0.418033
     277.059805    277.041776     20.145946     12.437902     11.375254
   ============  ============  ============  ============  ============

     DFT KT symmetry 4 ( B1g) in point group D2h -- 3 principal poles with pole strength 1

   ============  ============  ============
      10.181271      0.597636      0.338851
     277.046475     16.262512      9.220600
   ============  ============  ============

     DFT KT symmetry 5 ( B1u) in point group D2h -- 1 principal poles with pole strength 1

   ============
       0.358099
       9.744357
   ============

     DFT KT symmetry 6 ( B2g) in point group D2h -- 1 principal poles with pole strength 1

   ============
       0.244884
       6.663628
   ============

     DFT KT symmetry 7 ( B3g) in point group D2h -- 1 principal poles with pole strength 1

   ============
       0.244731
       6.659458
   ============

@ Summary of DFT KT ionization potentials [eV]:

@ Symmetry 1 (Ag ) :   277.065     277.048      23.069      16.263      14.129
@                        9.220

@ Symmetry 2 (B3u) :   277.059      20.152      11.980      11.382

@ Symmetry 3 (B2u) :   277.060     277.042      20.146      12.438      11.375

@ Symmetry 4 (B1g) :   277.046      16.263       9.221

@ Symmetry 5 (B1u) :     9.744

@ Symmetry 6 (B2g) :     6.664

@ Symmetry 7 (B3g) :     6.659

@ Symmetry 8 (Au ) :  No IPs in this symmetry

  === End of DFT KT output ===
--------------------------------------------------------------------------------


 CPU and wall time for SCF :       5.117       5.117


                       .-----------------------------------.
                       | --- Final results from SIRIUS --- |
                       `-----------------------------------'


@    Spin multiplicity:           1
@    Spatial symmetry:            1 ( irrep  Ag  in D2h )
@    Total charge of molecule:    0

@    Final DFT energy:           -232.044377381656                 
@    Nuclear repulsion:           202.766214134753
@    Electronic energy:          -434.810591516409

@    Final gradient norm:           0.000003116785

 
     Date and time (Linux)  : Thu May  7 16:45:47 2026
     Host name              : debian                                  

File label for MO orbitals:   7May26   FOCKDIIS

 (Only coefficients > 0.0100 are printed.)

 Molecular orbitals for symmetry species 1  (Ag )
 ------------------------------------------------

    Orbital         1        2        3        4        5        6        7
   1 C1  :1s     0.4297   0.5573  -0.0934   0.1019  -0.0099  -0.0039   0.0388
   2 C1  :1s     0.0137   0.0215   0.1806  -0.2098   0.0222   0.0144  -0.0641
   3 C1  :1s    -0.0062  -0.0248   0.1086  -0.1673   0.0347  -0.0124  -0.5248
   4 C1  :2py    0.0004  -0.0007  -0.0630  -0.0665   0.1987  -0.2277  -0.1271
   5 C1  :2py   -0.0007   0.0065  -0.0095  -0.0466   0.0701  -0.0624  -0.2902
   6 C2  :1s     0.3939  -0.3039  -0.0934  -0.0509  -0.0098   0.0020   0.0388
   7 C2  :1s     0.0123  -0.0116   0.1807   0.1049   0.0220  -0.0072  -0.0640
   8 C2  :1s    -0.0047   0.0127   0.1086   0.0836   0.0346   0.0062  -0.5244
   9 C2  :2px    0.0004   0.0005  -0.0546   0.1186   0.1721  -0.0189  -0.1098
  10 C2  :2py    0.0002  -0.0003  -0.0316  -0.1385   0.0996   0.2603  -0.0634
  11 C2  :2px   -0.0010  -0.0043  -0.0081   0.0413   0.0606  -0.0171  -0.2511
  12 C2  :2py   -0.0004   0.0011  -0.0047  -0.0247   0.0350   0.0919  -0.1450
  13 H7  :1s    -0.0006  -0.0007   0.0364  -0.1154   0.1082  -0.1770   0.0615
  14 H7  :1s     0.0023   0.0009   0.0070  -0.0428   0.0639  -0.1822   0.7485
  15 H8  :1s    -0.0005   0.0004   0.0364   0.0578   0.1081   0.0885   0.0614
  16 H8  :1s     0.0022  -0.0006   0.0070   0.0214   0.0640   0.0911   0.7480

    Orbital         8        9       10       11       12       13       14
   1 C1  :1s    -0.0895  -0.0766  -0.0075   0.0697   0.0071  -0.0285   0.0066
   2 C1  :1s     0.1283   0.0779   0.4223  -0.0599   0.4690   0.1897  -0.4436
   3 C1  :1s     1.6149   2.0395  -0.2144   0.0678  -0.5816   0.2517   0.8403
   4 C1  :2py    0.1193  -0.2707  -0.2785   0.2314   0.0328   0.6648  -0.3711
   5 C1  :2py    0.5142  -1.6190   0.2707   0.0149  -0.2251  -2.4213   0.4895
   6 C2  :1s     0.0448   0.0383  -0.0076  -0.0349   0.0066   0.0143   0.0066
   7 C2  :1s    -0.0642  -0.0391   0.4222   0.0252   0.4697  -0.0946  -0.4432
   8 C2  :1s    -0.8082  -1.0188  -0.2177  -0.0288  -0.5837  -0.1257   0.8373
   9 C2  :2px   -0.0146   0.1273  -0.2422  -0.3477   0.0256  -0.2761  -0.3219
  10 C2  :2py   -0.0940   0.0506  -0.1387   0.3716   0.0176  -0.1857  -0.1862
  11 C2  :2px   -0.0314   1.0829   0.2384   0.2507  -0.1937   1.0551   0.4280
  12 C2  :2py   -0.4604  -0.2555   0.1360  -0.4470  -0.1150   0.5940   0.2472
  13 H7  :1s    -0.0161   0.0166  -0.1627   0.2534   0.3719  -0.3859   0.3518
  14 H7  :1s    -1.2459   1.0001   0.0869  -0.0883   0.0706   1.7521  -0.8275
  15 H8  :1s     0.0080  -0.0082  -0.1631  -0.1289   0.3699   0.1928   0.3522
  16 H8  :1s     0.6240  -0.5010   0.0848   0.0432   0.0719  -0.8761  -0.8302

    Orbital        15       16
   1 C1  :1s     0.0305   0.0332
   2 C1  :1s     1.2418   0.8361
   3 C1  :1s    -4.1841  -3.1098
   4 C1  :2py   -0.0343  -0.2895
   5 C1  :2py    0.0807   3.9075
   6 C2  :1s    -0.0153  -0.0167
   7 C2  :1s    -0.6209  -0.4186
   8 C2  :1s     2.0923   1.5539
   9 C2  :2px    0.0755  -0.0202
  10 C2  :2py   -0.0964   0.3241
  11 C2  :2px   -0.4867  -1.6590
  12 C2  :2py    0.7618  -1.0368
  13 H7  :1s     0.4206  -0.6367
  14 H7  :1s     0.4058  -1.1644
  15 H8  :1s    -0.2101   0.3187
  16 H8  :1s    -0.2033   0.5834

 Molecular orbitals for symmetry species 2  (B3u)
 ------------------------------------------------

    Orbital         1        2        3        4        5        6        7
   1 C1  :2px   -0.0011   0.1147   0.2769  -0.0833  -0.0286   0.3057  -0.3552
   2 C1  :2px    0.0035   0.0119   0.0905   0.0341   0.1866   2.0581   0.5320
   3 C2  :1s     0.4976  -0.1126  -0.0000   0.0191   0.0332   0.0463   0.0000
   4 C2  :1s     0.0171   0.2258   0.0000  -0.0452  -0.0336  -0.0325   0.0003
   5 C2  :1s    -0.0103   0.1656   0.0001  -0.0893  -0.8164  -1.7529  -0.0004
   6 C2  :2px   -0.0003   0.0083  -0.1384   0.2121  -0.1942   0.1111   0.1779
   7 C2  :2py    0.0004  -0.0615   0.2398   0.1705  -0.0957  -0.1122  -0.3081
   8 C2  :2px    0.0017   0.0089  -0.0453   0.0794  -0.4127   0.7028  -0.2655
   9 C2  :2py   -0.0011  -0.0018   0.0784   0.0261  -0.3462  -0.7825   0.4610
  10 H8  :1s    -0.0007   0.0681   0.0001   0.1466   0.0405  -0.1218   0.0000
  11 H8  :1s     0.0017   0.0146   0.0001   0.1348   1.0715   0.0981  -0.0002

    Orbital         8        9       10       11
   1 C1  :2px    0.5556   0.0952   0.5064  -0.1021
   2 C1  :2px   -0.6178  -0.7659  -2.6529   1.7928
   3 C2  :1s     0.0322   0.0203  -0.0162   0.0022
   4 C2  :1s     0.4148  -0.6176  -0.6863  -0.4398
   5 C2  :1s    -0.2656   1.7236   2.5553  -1.3861
   6 C2  :2px    0.1349  -0.3692   0.3310   0.3108
   7 C2  :2py   -0.2425  -0.2681  -0.1012   0.2381
   8 C2  :2px   -0.1931   0.6646  -1.0043  -0.7109
   9 C2  :2py    0.2447   0.8261   0.9516  -1.4456
  10 H8  :1s     0.2973   0.3058  -0.3312   0.4658
  11 H8  :1s     0.0487  -1.2224   0.2577   0.5746

 Molecular orbitals for symmetry species 3  (B2u)
 ------------------------------------------------

    Orbital         1        2        3        4        5        6        7
   1 C1  :1s     0.5908  -0.3825  -0.1300   0.0589   0.0220   0.0384   0.0564
   2 C1  :1s     0.0205  -0.0165   0.2607  -0.1231  -0.0522  -0.0389  -0.1494
   3 C1  :1s    -0.0135   0.0390   0.1912  -0.1319  -0.1030  -0.9423   0.0627
   4 C1  :2py   -0.0001   0.0007  -0.0271  -0.1319   0.3108  -0.2497  -0.0742
   5 C1  :2py    0.0017  -0.0166   0.0079  -0.0600   0.0946  -0.6129  -1.1439
   6 C2  :1s     0.2703   0.4180  -0.0650  -0.0588   0.0111   0.0192  -0.0564
   7 C2  :1s     0.0092   0.0177   0.1303   0.1229  -0.0264  -0.0193   0.1495
   8 C2  :1s    -0.0043  -0.0398   0.0956   0.1316  -0.0519  -0.4709  -0.0623
   9 C2  :2px    0.0004  -0.0006  -0.0614   0.1150   0.1703  -0.0956   0.0643
  10 C2  :2py   -0.0008  -0.0004   0.0793   0.0663   0.0151  -0.0837   0.0373
  11 C2  :2px   -0.0017   0.0144  -0.0018   0.0521   0.0261  -0.3459   0.9916
  12 C2  :2py    0.0026   0.0085   0.0109   0.0302   0.0491  -0.0131   0.5733
  13 H7  :1s    -0.0008   0.0007   0.0786  -0.1441   0.1695   0.0469   0.0472
  14 H7  :1s     0.0018   0.0018   0.0168  -0.0896   0.1559   1.2371   1.1895
  15 H8  :1s    -0.0004  -0.0007   0.0393   0.1446   0.0844   0.0234  -0.0472
  16 H8  :1s     0.0010  -0.0017   0.0084   0.0899   0.0777   0.6181  -1.1917

    Orbital         8        9       10       11       12       13       14
   1 C1  :1s     0.0536  -0.1120   0.0371   0.0060  -0.0234  -0.0187  -0.0025
   2 C1  :1s    -0.0377   0.1027   0.4790  -0.0088   0.7120  -0.7934   0.5095
   3 C1  :1s    -2.0255   3.8296  -0.3019  -2.3133  -1.9901   2.9523   1.5936
   4 C1  :2py    0.0467  -0.1870  -0.0053  -0.5465   0.5237   0.2711  -0.4489
   5 C1  :2py    0.2520  -2.9121  -0.0550   2.9916  -1.1368  -0.4502   1.5469
   6 C2  :1s     0.0267   0.1121   0.0188  -0.0060  -0.0118  -0.0093  -0.0013
   7 C2  :1s    -0.0187  -0.1030   0.2393   0.0082   0.3559  -0.3967   0.2535
   8 C2  :1s    -1.0123  -3.8353  -0.1589   2.3133  -0.9875   1.4799   0.8019
   9 C2  :2px   -0.1124   0.1622  -0.2428   0.4726   0.2684  -0.1015  -0.2380
  10 C2  :2py    0.2406   0.0932   0.4153   0.2730   0.0607   0.4481  -0.0357
  11 C2  :2px   -0.7841   2.5222   0.2481  -2.5912  -0.8293   0.9521   1.4452
  12 C2  :2py    1.6063   1.4614  -0.4733  -1.4957   0.2827  -2.1050  -0.9559
  13 H7  :1s    -0.1406  -0.1595   0.3433   0.1227  -0.3535  -0.3824  -0.5372
  14 H7  :1s     0.1123   1.1870   0.0569  -1.4028   1.4091   0.2949  -0.6630
  15 H8  :1s    -0.0704   0.1590   0.1720  -0.1215  -0.1767  -0.1909  -0.2693
  16 H8  :1s     0.0573  -1.1887   0.0265   1.4020   0.7080   0.1483  -0.3323

    Orbital        15
   1 C1  :1s    -0.0143
   2 C1  :1s    -0.6638
   3 C1  :1s     1.2663
   4 C1  :2py    0.0284
   5 C1  :2py    1.0328
   6 C2  :1s     0.0143
   7 C2  :1s     0.6646
   8 C2  :1s    -1.2650
   9 C2  :2px   -0.0256
  10 C2  :2py   -0.0149
  11 C2  :2px   -0.8917
  12 C2  :2py   -0.5163
  13 H7  :1s    -0.4771
  14 H7  :1s    -0.5372
  15 H8  :1s     0.4765
  16 H8  :1s     0.5365

 Molecular orbitals for symmetry species 4  (B1g)
 ------------------------------------------------

    Orbital         1        2        3        4        5        6        7
   1 C1  :2px   -0.0006   0.2069  -0.2713   0.0854   0.0227  -0.3141   0.5719
   2 C1  :2px    0.0036   0.0485  -0.1018   0.4418   0.8818  -3.3286  -0.5991
   3 C2  :1s     0.4977  -0.0882   0.0034   0.0775   0.0664  -0.0001   0.0604
   4 C2  :1s     0.0191   0.1817  -0.0125  -0.1110  -0.0675   0.0002  -0.0491
   5 C2  :1s    -0.0217   0.1449   0.0106  -1.3991  -1.7698  -0.0019   0.0534
   6 C2  :2px   -0.0003  -0.0017   0.2385  -0.1109   0.1972  -0.1566   0.0300
   7 C2  :2py   -0.0005   0.1185  -0.0188  -0.0148   0.1270   0.2703   0.3486
   8 C2  :2px    0.0039   0.0228   0.0723  -0.4970   0.9949  -1.6660   0.1547
   9 C2  :2py    0.0043   0.0412  -0.0171  -0.0318   1.0848   2.8841  -0.2421
  10 H8  :1s    -0.0006   0.1001   0.1532   0.0139  -0.0143  -0.0004   0.2209
  11 H8  :1s     0.0008   0.0371   0.1578   1.0805  -0.8669   0.0004  -0.0761

    Orbital         8        9       10       11
   1 C1  :2px   -0.0261  -0.5594  -0.1400   0.3361
   2 C1  :2px   -0.0160   4.0725   1.0431  -0.0786
   3 C2  :1s    -0.0246   0.0000   0.0264   0.0288
   4 C2  :1s     0.1647   0.0004   1.0753   0.7245
   5 C2  :1s     0.2163  -0.0004  -3.6251  -2.6948
   6 C2  :2px    0.5051  -0.2798   0.0090  -0.3009
   7 C2  :2py    0.2765   0.4847  -0.0760   0.0201
   8 C2  :2px   -1.8128   2.0369  -0.2001   2.9504
   9 C2  :2py   -1.0547  -3.5258   0.4870   1.6604
  10 H8  :1s    -0.3339  -0.0000   0.3643  -0.5515
  11 H8  :1s     1.5180   0.0001   0.3517  -1.0096

 Molecular orbitals for symmetry species 5  (B1u)
 ------------------------------------------------

    Orbital         1        2        3        4
   1 C1  :2pz    0.2231   0.3687  -0.4270  -0.6340
   2 C1  :2pz    0.1296   0.4995   0.3047   1.0284
   3 C2  :2pz    0.2232  -0.1844  -0.4270   0.3170
   4 C2  :2pz    0.1296  -0.2497   0.3049  -0.5142

 Molecular orbitals for symmetry species 6  (B2g)
 ------------------------------------------------

    Orbital         1        2
   1 C2  :2pz    0.2962   0.5365
   2 C2  :2pz    0.2142  -0.5229

 Molecular orbitals for symmetry species 7  (B3g)
 ------------------------------------------------

    Orbital         1        2        3        4
   1 C1  :2pz    0.3421  -0.2944   0.6195  -0.4457
   2 C1  :2pz    0.2474  -0.5434  -0.6037   1.1714
   3 C2  :2pz    0.1710   0.2944   0.3099   0.4456
   4 C2  :2pz    0.1237   0.5436  -0.3021  -1.1715

 Molecular orbitals for symmetry species 8  (Au )
 ------------------------------------------------

    Orbital         1        2
   1 C2  :2pz    0.3194  -0.5490
   2 C2  :2pz    0.4325   0.8908

  Total CPU  time used in SIRIUS :   5.12 seconds
  Total wall time used in SIRIUS :   5.12 seconds

 
     Date and time (Linux)  : Thu May  7 16:45:47 2026
     Host name              : debian                                  


                     .---------------------------------------.
                     | End of Wave Function Section (SIRIUS) |
                     `---------------------------------------'

  Total CPU  time used in DALTON:   5.17 seconds
  Total wall time used in DALTON:   5.17 seconds

 
     Date and time (Linux)  : Thu May  7 16:45:47 2026
     Host name              : debian                                  
