

     ************************************************************************
     *************** Dalton - An Electronic Structure Program ***************
     ************************************************************************

    This is output from DALTON release Dalton2025.0-dev (2025)
         ( Web site: http://daltonprogram.org )

   ----------------------------------------------------------------------------

    NOTE:
     
    Dalton is an experimental code for the evaluation of molecular
    properties using (MC)SCF, DFT, CI, and CC wave functions.
    The authors accept no responsibility for the performance of
    the code or for the correctness of the results.
     
    The code (in whole or part) is provided under a licence and
    is not to be reproduced for further distribution without
    the written permission of the authors or their representatives.
     
    See the home page "http://daltonprogram.org" for further information.
     
    If results obtained with this code are published,
    the appropriate citations would be both of:
     
       K. Aidas, C. Angeli, K. L. Bak, V. Bakken,
       R. Bast, L. Boman, O. Christiansen, R. Cimiraglia,
       S. Coriani, P. Dahle, E. K. Dalskov, U. Ekstroem,
       T. Enevoldsen, J. J. Eriksen, P. Ettenhuber, B. Fernandez,
       L. Ferrighi, H. Fliegl, L. Frediani, K. Hald, A. Halkier,
       C. Haettig, H. Heiberg, T. Helgaker, A. C. Hennum,
       H. Hettema, E. Hjertenaes, S. Hoest, I.-M. Hoeyvik,
       M. F. Iozzi, B. Jansik, H. J. Aa. Jensen, D. Jonsson,
       P. Joergensen, J. Kauczor, S. Kirpekar,
       T. Kjaergaard, W. Klopper, S. Knecht, R. Kobayashi, H. Koch,
       J. Kongsted, A. Krapp, K. Kristensen, A. Ligabue,
       O. B. Lutnaes, J. I. Melo, K. V. Mikkelsen, R. H. Myhre,
       C. Neiss, C. B. Nielsen, P. Norman, J. Olsen,
       J. M. H. Olsen, A. Osted, M. J. Packer, F. Pawlowski,
       T. B. Pedersen, P. F. Provasi, S. Reine, Z. Rinkevicius,
       T. A. Ruden, K. Ruud, V. Rybkin, P. Salek, C. C. M. Samson,
       A. Sanchez de Meras, T. Saue, S. P. A. Sauer,
       B. Schimmelpfennig, K. Sneskov, A. H. Steindal,
       K. O. Sylvester-Hvid, P. R. Taylor, A. M. Teale,
       E. I. Tellgren, D. P. Tew, A. J. Thorvaldsen, L. Thoegersen,
       O. Vahtras, M. A. Watson, D. J. D. Wilson, M. Ziolkowski
       and H. Agren,
       "The Dalton quantum chemistry program system",
       WIREs Comput. Mol. Sci. 2014, 4:269-284 (doi: 10.1002/wcms.1172)
     
    and
     
       Dalton, a molecular electronic structure program,
       Release Dalton2025.0-dev (2025), see http://daltonprogram.org
   ----------------------------------------------------------------------------

    Authors in alphabetical order (Major contribution(s) in parenthesis):

  Kestutis Aidas,              Vilnius University,        Lithuania   (QM/MM)
  Celestino Angeli,            University of Ferrara,     Italy       (NEVPT2)
  Juan J. Aucar,               Northeast National UniversiArgentina   (LRESC, Relativistic Effects on NMR Shieldings and EFG)
  Keld L. Bak,                 UNI-C,                     Denmark     (AOSOPPA, non-adiabatic coupling, magnetic properties)
  Vebjoern Bakken,             University of Oslo,        Norway      (DALTON; geometry optimizer, symmetry detection)
  Radovan Bast,                UiT The Arctic U. of NorwayNorway      (DALTON installation and execution frameworks)
  Pablo Baudin,                University of Valencia,    Spain       (Cholesky excitation energies)
  Linus Boman,                 NTNU,                      Norway      (Cholesky decomposition and subsystems)
  Bruno N. Cabral Tenorio,     Technical Univ. of Denmark,Denmark     (Lanczos-based CC methods)
  Ove Christiansen,            Aarhus University,         Denmark     (CC module)
  Renzo Cimiraglia,            University of Ferrara,     Italy       (NEVPT2)
  Sonia Coriani,               Technical Univ. of Denmark,Denmark     (CC and RESPONS modules)
  Janusz Cukras,               University of Warsaw,      Poland      (MChD in RESPONS)
  Paal Dahle,                  University of Oslo,        Norway      (Parallelization)
  Erik K. Dalskov,             UNI-C,                     Denmark     (SOPPA)
  Thomas Enevoldsen,           Univ. of Southern Denmark, Denmark     (SOPPA)
  Janus J. Eriksen,            Aarhus University,         Denmark     (Polarizable embedding, TDA)
  Rasmus Faber,                Technical Univ. of Denmark,Denmark     (Vib.avg. NMR w. SOPPA, parallel AO-SOPPA, CVS-CC and EOMCC)
  Tobias Fahleson,             KTH Stockholm,             Sweden      (Damped cubic response)
  Berta Fernandez,             U. of Santiago de CompostelSpain       (Doublet spin, ESR in RESPONS)
  Lara Ferrighi,               Aarhus University,         Denmark     (PCM Cubic response)
  Heike Fliegl,                University of Oslo,        Norway      (CCSD(R12))
  Luca Frediani,               UiT The Arctic U. of NorwayNorway      (PCM)
  Emmanuel Fromager,           Univ. Strasbourg,          France      (MC-srDFT)
  Bin Gao,                     UiT The Arctic U. of NorwayNorway      (Gen1Int library)
  Andre S. P. Gomes,           CNRS/Universite de Lille,  France      (Frozen density embedding)
  Christof Haettig,            Ruhr-University Bochum,    Germany     (CC module)
  Kasper Hald,                 Aarhus University,         Denmark     (CC module)
  Asger Halkier,               Aarhus University,         Denmark     (CC module)
  Frederik Beyer Hansen,       University of Copenhagen,  Denmark     (Parallel AO-SOPPA)
  Erik D. Hedegaard,           Univ. of Southern Denmark, Denmark     (Polarizable embedding, QM/MM, and MC-srDFT)
  Hanne Heiberg,               University of Oslo,        Norway      (Geometry analysis, selected one-electron integrals)
  Trygve Helgaker,             University of Oslo,        Norway      (DALTON; ABACUS, ERI, DFT modules, London, and much more)
  Alf Christian Hennum,        University of Oslo,        Norway      (Parity violation)
  Hinne Hettema,               University of Auckland,    New Zealand (Quadratic response in RESPONS; SIRIUS supersymmetry)
  Andreas E. Hillers-Bendtsen, University of Copenhagen,  Denmark     (MP3)
  Eirik Hjertenaes,            NTNU,                      Norway      (Cholesky decomposition)
  Nicolai Machholdt Hoeyer,    Aarhus University,         Denmark     (MP3)
  Pi A. B. Haase,              University of Copenhagen,  Denmark     (Triplet AO-SOPPA)
  Maria Francesca Iozzi,       University of Oslo,        Norway      (RPA)
  Christoph Jacob,             TU Braunschweig            Germany     (Frozen density embedding)
  Brano Jansik,                Technical Univ. of Ostrava Czech Rep.  (DFT cubic response)
  Hans Joergen Aa. Jensen,     Univ. of Southern Denmark, Denmark     (DALTON; SIRIUS, RESPONS, ABACUS, MC-srDFT, and much more)
  Dan Jonsson,                 UiT The Arctic U. of NorwayNorway      (Cubic response in RESPONS module)
  Poul Joergensen,             Aarhus University,         Denmark     (RESPONS, ABACUS, and CC modules)
  Maciej Kaminski,             University of Warsaw,      Poland      (CPPh in RESPONS)
  Joanna Kauczor,              Linkoeping University,     Sweden      (Complex polarization propagator (CPP) module)
  Sheela Kirpekar,             Univ. of Southern Denmark, Denmark     (Mass-velocity & Darwin integrals)
  Frederik Oersted Kjeldal,    Technical Univ. of Denmark,Denmark     (MP3)
  Erik Kjellgren,              Univ. of Southern Denmark, Denmark     (MC-srDFT)
  Wim Klopper,                 KIT Karlsruhe,             Germany     (R12 code in CC, SIRIUS, and ABACUS modules)
  Stefan Knecht,               ETH Zurich,                Switzerland (Parallel CI and MCSCF, MC-srDFT)
  Rika Kobayashi,              Australian National Univ., Australia   (DIIS in CC, London in MCSCF)
  Henrik Koch,                 NTNU,                      Norway      (CC module, Cholesky decomposition)
  Jacob Kongsted,              Univ. of Southern Denmark, Denmark     (Polarizable embedding, polarizable density embedding, QM/MM)
  Andrea Ligabue,              University of Modena,      Italy       (CTOCD, AOSOPPA)
  Nanna H. List,               Univ. of Southern Denmark, Denmark     (Polarizable embedding)
  Ola B. Lutnaes,              University of Oslo,        Norway      (DFT Hessian)
  Juan I. Melo,                University of Buenos Aires,Argentina   (LRESC, Relativistic Effects on NMR Shieldings)
  Kurt V. Mikkelsen,           University of Copenhagen,  Denmark     (MC-SCRF, QM/MM, and MP3)
  Rolf H. Myhre,               NTNU,                      Norway      (Subsystems and CC3)
  Christian Neiss,             Univ. Erlangen-Nuernberg,  Germany     (CCSD(R12))
  Christian B. Nielsen,        University of Copenhagen,  Denmark     (QM/MM)
  Patrick Norman,              KTH Stockholm,             Sweden      (Cubic response and complex frequency response in RESPONS)
  Jeppe Olsen,                 Aarhus University,         Denmark     (SIRIUS CI/density modules)
  Jogvan Magnus H. Olsen,      Aarhus University,         Denmark     (Polarizable embedding and polarizable density embedding)
  Anders Osted,                Copenhagen University,     Denmark     (QM/MM)
  Martin J. Packer,            University of Sheffield,   UK          (SOPPA)
  Filip Pawlowski,             Kazimierz Wielki UniversityPoland      (CC3)
  Morten N. Pedersen,          Univ. of Southern Denmark, Denmark     (Polarizable embedding)
  Thomas B. Pedersen,          University of Oslo,        Norway      (Cholesky decomposition)
  Patricio F. Provasi,         University of Northeastern,Argentina   (Analysis of coupling constants in localized orbitals)
  Peter Reinholdt,             Univ. of Southern Denmark, Denmark     (Polarizable embedding and polarizable density embedding)
  Zilvinas Rinkevicius,        KTH Stockholm,             Sweden      (open-shell DFT, ESR)
  Elias Rudberg,               KTH Stockholm,             Sweden      (DFT grid and basis info)
  Torgeir A. Ruden,            University of Oslo,        Norway      (Numerical derivatives in ABACUS)
  Kenneth Ruud,                UiT The Arctic U. of NorwayNorway      (DALTON; ABACUS magnetic properties and much more)
  Pawel Salek,                 KTH Stockholm,             Sweden      (DALTON; DFT code)
  Claire C. M. Samson,         University of Karlsruhe    Germany     (Boys localization, r12 integrals in ERI)
  Alfredo Sanchez de Meras,    University of Valencia,    Spain       (CC module, Cholesky decomposition)
  Trond Saue,                  Paul Sabatier University,  France      (direct Fock matrix construction)
  Stephan P. A. Sauer,         University of Copenhagen,  Denmark     (SOPPA(CCSD), SOPPA prop., AOSOPPA, vibrational g-factors)
  Bernd Schimmelpfennig,       Forschungszentrum KarlsruheGermany     (AMFI module)
  Anna K. Schnack-Petersen,    University of Copenhagen,  Denmark     (RPA(D) and HRPA(D) properties in AOSOPPA)
  Kristian Sneskov,            Aarhus University,         Denmark     (Polarizable embedding, QM/MM)
  Arnfinn H. Steindal,         UiT The Arctic U. of NorwayNorway      (parallel QM/MM, polarizable embedding)
  Casper Steinmann,            Aalborg University,        Denmark     (QFIT, polarizable embedding)
  K. O. Sylvester-Hvid,        University of Copenhagen,  Denmark     (MC-SCRF)
  Peter R. Taylor,             VLSCI/Univ. of Melbourne,  Australia   (Symmetry handling ABACUS, integral transformation)
  Andrew M. Teale,             University of Nottingham,  England     (DFT-AC, DFT-D)
  David P. Tew,                University of Bristol,     England     (CCSD(R12))
  Julien Toulouse,             Sorbonne Univ.,            France      (MC-srDFT)
  Olav Vahtras,                KTH Stockholm,             Sweden      (Triplet response, spin-orbit, ESR, TDDFT, open-shell DFT)
  Lucas Visscher,              Vrije Universiteit AmsterdaNetherlands (Frozen density embedding)
  David J. Wilson,             La Trobe University,       Australia   (DFT Hessian and DFT magnetizabilities)
  Luna Zamok,                  University of Copenhagen,  Denmark     (Block Lanczos RPA solver in SOPPA module)
  Hans Agren,                  KTH Stockholm,             Sweden      (SIRIUS module, RESPONS, MC-SCRF solvation)
 --------------------------------------------------------------------------------

     Date and time (Linux)  : Mon May  4 21:05:26 2026
     Host name              : debian                                  

 * Work memory size             :    64000000 =  488.28 megabytes.

 * Directories for basis set searches:
   1) /home/vdwv/DIPLOM_ITMO/CALCULATIONS_AND_SOFTS/softwares/Dalton_Shenanigans/dalton/dalton/build
   2) /home/vdwv/DIPLOM_ITMO/CALCULATIONS_AND_SOFTS/softwares/Dalton_Shenanigans/dalton/dalton/build/basis


Compilation information
-----------------------

 Who compiled             | vdwv
 Host                     | debian
 System                   | Linux-6.12.73+deb13-amd64
 CMake generator          | Unix Makefiles
 Processor                | x86_64
 64-bit integers          | OFF
 MPI                      | OFF
 Fortran compiler         | /usr/bin/gfortran
 Fortran compiler version | GNU Fortran (Debian 14.2.0-19) 14.2.0
 C compiler               | /usr/bin/gcc
 C compiler version       | gcc (Debian 14.2.0-19) 14.2.0
 C++ compiler             | /usr/bin/g++
 C++ compiler version     | g++ (Debian 14.2.0-19) 14.2.0
 BLAS                     | /opt/intel/oneapi/mkl/2025.3/lib/intel64/libmkl_gf
                          | _lp64.so;/opt/intel/oneapi/mkl/2025.3/lib/intel64/
                          | libmkl_sequential.so;/opt/intel/oneapi/mkl/2025.3/
                          | lib/intel64/libmkl_core.so;/usr/lib/x86_64-linux-g
                          | nu/libpthread.a;/usr/lib/x86_64-linux-gnu/libm.so
 LAPACK                   | /opt/intel/oneapi/mkl/2025.3/lib/intel64/libmkl_la
                          | pack95_lp64.a;/opt/intel/oneapi/mkl/2025.3/lib/int
                          | el64/libmkl_gf_lp64.so
 Static linking           | OFF
 Last Git revision        | 1892235f9264b9be21ec2fefe6e0081d659ab244
 Git branch               | master
 Configuration time       | 2026-05-04 17:50:26.788788

 * Sequential calculation.


   Content of the .dal input file
 ----------------------------------

BASIS
cc-pVTZ
Methane CH4 using the cc-pVTZ basis
Using automatic symmetry detection
AtomTypes=2 Angstrom
Charge=6.0 Atoms=1
C     0.000      0.000      0.000
Charge=1.0 Atoms=4
H1    0.625      0.625      0.625
H2   -0.625     -0.625      0.625
H3   -0.625      0.625     -0.625
H4    0.625     -0.625     -0.625

**DALTON INPUT
.RUN WAVE FUN
**WAVE FUN
.HF
**END OF


       *******************************************************************
       *********** Output from DALTON general input processing ***********
       *******************************************************************

 --------------------------------------------------------------------------------
   Overall default print level:    0
   Print level for DALTON.STAT:    1

    HERMIT 1- and 2-electron integral sections will be executed
    "Old" integral transformation used (limited to max 255 basis functions)
    Wave function sections will be executed (SIRIUS module)
 --------------------------------------------------------------------------------


   ****************************************************************************
   *************** Output of molecule and basis set information ***************
   ****************************************************************************


    The two title cards from your ".mol" input:
    --------------------------------------------------------------------------------
 1: Methane CH4 using the cc-pVTZ basis
 2: Using automatic symmetry detection
    --------------------------------------------------------------------------------

  Coordinates are entered in Angstrom and converted to atomic units.
          - Conversion factor : 1 bohr = 0.52917721080 A

  Atomic type no.    1
  --------------------
  Nuclear charge:   6.00000
  Number of symmetry independent centers:    1
  Number of basis sets to read;    2
  Basis set file used for this atomic type with Z =   6 :
     "/home/vdwv/DIPLOM_ITMO/CALCULATIONS_AND_SOFTS/softwares/Dalton_Shenanigans/dalton/dalton/build/basis/cc-pVTZ"

  Atomic type no.    2
  --------------------
  Nuclear charge:   1.00000
  Number of symmetry independent centers:    4
  Number of basis sets to read;    2
  Basis set file used for this atomic type with Z =   1 :
     "/home/vdwv/DIPLOM_ITMO/CALCULATIONS_AND_SOFTS/softwares/Dalton_Shenanigans/dalton/dalton/build/basis/cc-pVTZ"


                      SYMADD: Addition of symmetry requested
                      --------------------------------------

 Symmetry test threshold:  5.00E-06

@  The molecule has been centered at center of mass and rotated
@  so the principal axes of inertia are along coordinate axes.

 Symmetry class found: T(d)           

 Symmetry Independent Centres             
 ----------------------------
C      6 :      0.00000000     0.00000000     0.00000000  Isotope  1
H2     1 :      1.67029770    -0.96434682    -0.68189618  Isotope  1
H3     1 :      0.00000000     1.92869365    -0.68189618  Isotope  1
H4     1 :      0.00000000     0.00000000     2.04568854  Isotope  1

 The following symmetry element was found:   X        


                         SYMGRP: Point group information
                         -------------------------------

@    Full point group is: T(d)           
@    Represented as:      Cs 

@  * The irrep name for each symmetry:    1: A'     2: A" 

   * The point group was generated by:

      Reflection in the yz-plane

   * Group multiplication table

        |  E   Oyz
   -----+----------
     E  |  E   Oyz
    Oyz | Oyz   E 

   * Character table

        |  E   Oyz
   -----+----------
    A'  |   1    1
    A"  |   1   -1

   * Direct product table

        | A'   A" 
   -----+----------
    A'  | A'   A" 
    A"  | A"   A' 


                                 Isotopic Masses
                                 ---------------

                           C          12.000000
                           H2  _1      1.007825
                           H2  _2      1.007825
                           H3          1.007825
                           H4          1.007825

                       Total mass:    16.031300 amu
                       Natural abundance:  98.841 %

 Center-of-mass coordinates (a.u.):    0.000000   -0.000000    0.000000
 Center-of-mass coordinates (Angs):    0.000000   -0.000000    0.000000


  Atoms and basis sets
  --------------------

  Number of atom types :    2
  Total number of atoms:    5

  Basis set used is "cc-pVTZ" from the basis set library.

  label    atoms   charge   prim   cont     basis
  ----------------------------------------------------------------------
  C           1    6.0000    42    30      [10s5p2d1f|4s3p2d1f]                               
  H4          4    1.0000    16    14      [5s2p1d|3s2p1d]                                    
  ----------------------------------------------------------------------
  total:      5   10.0000   106    86
  ----------------------------------------------------------------------
  Spherical harmonic basis used.

  Threshold for neglecting AO integrals:  1.00D-12


  Cartesian Coordinates (bohr)
  ----------------------------

  Total number of coordinates:   15
  C       :     1  x   0.0000000000    2  y   0.0000000000    3  z   0.0000000000
  H2  / 1 :     4  x   1.6702976970    5  y  -0.9643468250    6  z  -0.6818961793
  H2  / 2 :     7  x  -1.6702976970    8  y  -0.9643468250    9  z  -0.6818961793
  H3      :    10  x   0.0000000000   11  y   1.9286936499   12  z  -0.6818961793
  H4      :    13  x   0.0000000000   14  y   0.0000000000   15  z   2.0456885380


  Cartesian Coordinates (xyz format; angstrom)
  --------------------------------------------

    5

  C        0.0000000000            0.0000000000            0.0000000000
  H        0.8838834765           -0.5103103631           -0.3608439182
  H       -0.8838834765           -0.5103103631           -0.3608439182
  H        0.0000000000            1.0206207262           -0.3608439182
  H        0.0000000000            0.0000000000            1.0825317547


  Symmetry Coordinates
  --------------------

  Number of coordinates in each symmetry:     9    6

  Symmetry  A'  ( 1)

    1   C     y    2
    2   C     z    3
    3   H2    x    [  4  -    7 ]/2
    4   H2    y    [  5  +    8 ]/2
    5   H2    z    [  6  +    9 ]/2
    6   H3    y   11
    7   H3    z   12
    8   H4    y   14
    9   H4    z   15

  Symmetry  A"  ( 2)

   10   C     x    1
   11   H2    x    [  4  +    7 ]/2
   12   H2    y    [  5  -    8 ]/2
   13   H2    z    [  6  -    9 ]/2
   14   H3    x   10
   15   H4    x   13


   Interatomic separations (in Angstrom):
   --------------------------------------

            C           H2  _1      H2  _2      H3          H4    
            ------      ------      ------      ------      ------
 C     :    0.000000
 H2  _1:    1.082532    0.000000
 H2  _2:    1.082532    1.767767    0.000000
 H3    :    1.082532    1.767767    1.767767    0.000000
 H4    :    1.082532    1.767767    1.767767    1.767767    0.000000


  Max    interatomic separation is    1.7678 Angstrom (    3.3406 Bohr)
  between atoms    5 and    4, "H4    " and "H3    ".

  Min HX interatomic separation is    1.0825 Angstrom (    2.0457 Bohr)


  Bond distances (Angstrom):
  --------------------------

                  atom 1     atom 2       distance
                  ------     ------       --------
  bond distance:  H2  _1     C            1.082532
  bond distance:  H2  _2     C            1.082532
  bond distance:  H3         C            1.082532
  bond distance:  H4         C            1.082532


  Bond angles (degrees):
  ----------------------

                  atom 1     atom 2     atom 3         angle
                  ------     ------     ------         -----
  bond angle:     H2  _1     C          H2  _2       109.471
  bond angle:     H2  _1     C          H3           109.471
  bond angle:     H2  _1     C          H4           109.471
  bond angle:     H2  _2     C          H3           109.471
  bond angle:     H2  _2     C          H4           109.471
  bond angle:     H3         C          H4           109.471




 Principal moments of inertia (u*A**2) and principal axes
 --------------------------------------------------------

   IA       3.149453          0.000000    1.000000    0.000000
   IB       3.149453          0.000000    0.000000    1.000000
   IC       3.149453          1.000000    0.000000    0.000000


 Rotational constants
 --------------------

               A                   B                   C

         160465.6383         160465.6383         160465.6383 MHz
            5.352558            5.352558            5.352558 cm-1


@  Nuclear repulsion energy :   13.528078248198 Hartree


  Symmetry Orbitals
  -----------------

  Number of orbitals in each symmetry:          54   32


  Symmetry  A' ( 1)

    1     C        1s         1
    2     C        1s         2
    3     C        1s         3
    4     C        1s         4
    5     C        2py        6
    6     C        2pz        7
    7     C        2py        9
    8     C        2pz       10
    9     C        2py       12
   10     C        2pz       13
   11     C        3d1-      15
   12     C        3d0       16
   13     C        3d2+      18
   14     C        3d1-      20
   15     C        3d0       21
   16     C        3d2+      23
   17     C        4f3-      24
   18     C        4f1-      26
   19     C        4f0       27
   20     C        4f2+      29
   21     H2       1s        31 +   32
   22     H2       1s        33 +   34
   23     H2       1s        35 +   36
   24     H2       2px       37 -   38
   25     H2       2py       39 +   40
   26     H2       2pz       41 +   42
   27     H2       2px       43 -   44
   28     H2       2py       45 +   46
   29     H2       2pz       47 +   48
   30     H2       3d2-      49 -   50
   31     H2       3d1-      51 +   52
   32     H2       3d0       53 +   54
   33     H2       3d1+      55 -   56
   34     H2       3d2+      57 +   58
   35     H3       1s        59
   36     H3       1s        60
   37     H3       1s        61
   38     H3       2py       63
   39     H3       2pz       64
   40     H3       2py       66
   41     H3       2pz       67
   42     H3       3d1-      69
   43     H3       3d0       70
   44     H3       3d2+      72
   45     H4       1s        73
   46     H4       1s        74
   47     H4       1s        75
   48     H4       2py       77
   49     H4       2pz       78
   50     H4       2py       80
   51     H4       2pz       81
   52     H4       3d1-      83
   53     H4       3d0       84
   54     H4       3d2+      86


  Symmetry  A" ( 2)

   55     C        2px        5
   56     C        2px        8
   57     C        2px       11
   58     C        3d2-      14
   59     C        3d1+      17
   60     C        3d2-      19
   61     C        3d1+      22
   62     C        4f2-      25
   63     C        4f1+      28
   64     C        4f3+      30
   65     H2       1s        31 -   32
   66     H2       1s        33 -   34
   67     H2       1s        35 -   36
   68     H2       2px       37 +   38
   69     H2       2py       39 -   40
   70     H2       2pz       41 -   42
   71     H2       2px       43 +   44
   72     H2       2py       45 -   46
   73     H2       2pz       47 -   48
   74     H2       3d2-      49 +   50
   75     H2       3d1-      51 -   52
   76     H2       3d0       53 -   54
   77     H2       3d1+      55 +   56
   78     H2       3d2+      57 -   58
   79     H3       2px       62
   80     H3       2px       65
   81     H3       3d2-      68
   82     H3       3d1+      71
   83     H4       2px       76
   84     H4       2px       79
   85     H4       3d2-      82
   86     H4       3d1+      85

  Symmetries of electric field:  A" (2)  A' (1)  A' (1)

  Symmetries of magnetic field:  A' (1)  A" (2)  A" (2)


                     .---------------------------------------.
                     | Starting in Integral Section (HERMIT) |
                     `---------------------------------------'



 ***************************************************************************************
 ****************** Output from **INTEGRALS input processing (HERMIT) ******************
 ***************************************************************************************


 - Using defaults, no **INTEGRALS input found

 Default print level:        1

 Calculation of one- and two-electron Hamiltonian integrals.

 Center of mass  (bohr):      0.000000000000     -0.000000000000      0.000000000000
 Operator center (bohr):      0.000000000000      0.000000000000      0.000000000000
 Gauge origin    (bohr):      0.000000000000     -0.000000000000      0.000000000000
 Dipole origin   (bohr):      0.000000000000     -0.000000000000      0.000000000000

Calculation of 2-electron integrals are postponed until they are needed.


     ************************************************************************
     ************************** Output from HERINT **************************
     ************************************************************************



                      Nuclear contribution to dipole moments
                      --------------------------------------

                 au               Debye          C m (/(10**-30)

      y     -0.00000000        -0.00000000        -0.00000000
      z      0.00000000         0.00000000         0.00000000


  Total CPU  time used in HERMIT:   0.05 seconds
  Total wall time used in HERMIT:   0.05 seconds


                        .----------------------------------.
                        | End of Integral Section (HERMIT) |
                        `----------------------------------'



                   .--------------------------------------------.
                   | Starting in Wave Function Section (SIRIUS) |
                   `--------------------------------------------'


 *** Output from Huckel module :

     Using EWMO model:          F
     Using EHT  model:          T
     Number of Huckel orbitals each symmetry:    7    2

 Huckel EHT eigenvalues for symmetry :  1
          -11.382352      -1.229699      -0.609222      -0.609222      -0.222915
           -0.202856      -0.202856

 Huckel EHT eigenvalues for symmetry :  2
           -0.609222      -0.202856

 **********************************************************************
 *SIRIUS* a direct, restricted step, second order MCSCF program       *
 **********************************************************************

 
     Date and time (Linux)  : Mon May  4 21:05:27 2026
     Host name              : debian                                  

 Title lines from ".mol" input file:
     Methane CH4 using the cc-pVTZ basis
     Using automatic symmetry detection

 Print level on unit LUPRI =   2 is   0
 Print level on unit LUW4  =   2 is   5

@    Restricted, closed shell Hartree-Fock calculation.

 Initial molecular orbitals are obtained according to
 ".MOSTART EHT   " input option

     Wave function specification
     ============================
@    Wave function type        --- HF ---
@    Number of closed shell electrons          10
@    Number of electrons in active shells       0
@    Total charge of the molecule               0

@    Spin multiplicity and 2 M_S                1         0
@    Total number of symmetries                 2 (point group: Cs )
@    Reference state symmetry                   1 (irrep name : A' )

     Orbital specifications
     ======================
@    Abelian symmetry species          All |    1    2
@                                          |  A'   A" 
                                       --- |  ---  ---
@    Total number of orbitals           86 |   54   32
@    Number of basis functions          86 |   54   32

      ** Automatic occupation of RHF orbitals **

      -- Initial occupation of symmetries is determined from extended Huckel guess.           
      -- Initial occupation of symmetries is :
@    Occupied SCF orbitals               5 |    4    1

     Maximum number of Fock   iterations      0
     Maximum number of DIIS   iterations     60
     Maximum number of QC-SCF iterations     60
     Threshold for SCF convergence     1.00D-05


 ***********************************************
 ***** DIIS acceleration of SCF iterations *****
 ***********************************************

 C1-DIIS algorithm; max error vectors =    8

 Automatic occupation of symmetries with  10 electrons.

 Iter     Total energy    Error norm  Delta(E)    SCF occupation
 -----------------------------------------------------------------------------

Calculating AOSUPINT

---> (Re)generating AOTWOINT


     ************************************************************************
     ************************** Output from HERINT **************************
     ************************************************************************


***  INFO  GETGAB: GABSO--- not found on AOGABINT. Regenerating.

 Threshold for neglecting two-electron integrals:  1.00D-12
 HERMIT - Number of two-electron integrals written:     3254199 ( 46.5% )
 HERMIT - Megabytes written:                             37.355

  Total CPU  time used in TWOINT:   0.48 seconds
  Total wall time used in TWOINT:   0.48 seconds
  Time used in TWOINT     is       0.50 seconds
  CPU  time used in MAKE_AOTWOINT is   0.50 seconds
  WALL time used in MAKE_AOTWOINT is   0.50 seconds
     (Precalculated AO two-electron integrals are transformed to P-supermatrix elements.
      Threshold for discarding integrals :  1.00D-12 )

  CPU  time used in FORMSUP    is   0.16 seconds
  WALL time used in FORMSUP    is   0.16 seconds
@  1  -39.9959949640       1.93D+00  -4.00D+01     4   1
      Virial theorem: -V/T =      2.026291
@    MULPOP   C      -0.40; H2  _1  0.10; H2  _2  0.10; H3      0.10; H4      0.10; 
   1  Level shift: doubly occupied orbital energies shifted by -2.00D-01
 -----------------------------------------------------------------------------
@  2  -40.1968146244       5.20D-01  -2.01D-01     4   1
      Virial theorem: -V/T =      1.992350
@    MULPOP   C      -0.73; H2  _1  0.18; H2  _2  0.18; H3      0.18; H4      0.18; 
   2  Level shift: doubly occupied orbital energies shifted by -1.00D-01
 -----------------------------------------------------------------------------
@  3  -40.2122151655       1.04D-01  -1.54D-02     4   1
      Virial theorem: -V/T =      2.003703
@    MULPOP   C      -0.42; H2  _1  0.10; H2  _2  0.10; H3      0.10; H4      0.10; 
   3  Level shift: doubly occupied orbital energies shifted by -2.50D-02
 -----------------------------------------------------------------------------
@  4  -40.2133690385       2.49D-02  -1.15D-03     4   1
      Virial theorem: -V/T =      2.001037
@    MULPOP   C      -0.39; H2  _1  0.10; H2  _2  0.10; H3      0.10; H4      0.10; 
 -----------------------------------------------------------------------------
@  5  -40.2134640311       2.98D-03  -9.50D-05     4   1
      Virial theorem: -V/T =      2.000574
@    MULPOP   C      -0.38; H2  _1  0.09; H2  _2  0.09; H3      0.09; H4      0.09; 
 -----------------------------------------------------------------------------
@  6  -40.2134654637       3.69D-04  -1.43D-06     4   1
      Virial theorem: -V/T =      2.000538
@    MULPOP   C      -0.37; H2  _1  0.09; H2  _2  0.09; H3      0.09; H4      0.09; 
 -----------------------------------------------------------------------------
@  7  -40.2134654828       2.72D-05  -1.91D-08     4   1
      Virial theorem: -V/T =      2.000532
@    MULPOP   C      -0.37; H2  _1  0.09; H2  _2  0.09; H3      0.09; H4      0.09; 
 -----------------------------------------------------------------------------
@  8  -40.2134654829       2.38D-06  -8.52D-11     4   1

@ *** DIIS converged in   8 iterations !
@     Converged SCF energy, gradient:    -40.213465482910    2.38D-06
    - total time used in SIRFCK :              0.00 seconds


 *** SCF orbital energy analysis ***

 Only the 20 lowest virtual orbital energies printed in each symmetry.

 Number of electrons        :   10
 Closed shell orbitals      :    4    1

 Sym       Hartree-Fock orbital energies

1 A'    -11.20350801    -0.94551985    -0.54645701    -0.54645701     0.14389009
          0.23004281     0.23004281     0.36397131     0.36397131     0.64419610
          0.65030794     0.65030794     0.68575053     0.76005634     1.07914436
          1.15848547     1.15848547     1.32111635     1.32111635     1.53820668
          1.53820668     1.60207641     1.81830899     2.42082949

2 A"     -0.54645701     0.23004281     0.36397131     0.65030795     0.68575053
          1.07914436     1.07914436     1.15848547     1.32111635     1.53820669
          1.60207641     2.42082949     2.99317063     3.13472308     3.14439319
          3.14439319     3.31089889     3.62320035     3.62320035     3.74856341
          3.80429831

    E(LUMO) :     0.14389009 au (symmetry 1)
  - E(HOMO) :    -0.54645701 au (symmetry 2)
  ------------------------------------------
    gap     :     0.69034709 au

 --- Writing SIRIFC interface file

--------------------------------------------------------------------------------


     .--------------------------------------------------.
     | HF-SCF KT IPs [a.u. & eV] from Koopmans' theorem |
     `--------------------------------------------------'


     HF-SCF KT symmetry 1 ( A' ) in point group Cs  -- 4 principal poles with pole strength 1

   ============  ============  ============  ============
      11.203508      0.945520      0.546457      0.546457
     304.862961     25.728904     14.869852     14.869852
   ============  ============  ============  ============

     HF-SCF KT symmetry 2 ( A" ) in point group Cs  -- 1 principal poles with pole strength 1

   ============
       0.546457
      14.869852
   ============

@ Summary of HF-SCF KT ionization potentials [eV]:

@ Symmetry 1 (A' ) :   304.863      25.729      14.870      14.870

@ Symmetry 2 (A" ) :    14.870

  === End of HF-SCF KT output ===
--------------------------------------------------------------------------------


 CPU and wall time for SCF :       0.765       0.767


                       .-----------------------------------.
                       | --- Final results from SIRIUS --- |
                       `-----------------------------------'


@    Spin multiplicity:           1
@    Spatial symmetry:            1 ( irrep  A'  in Cs  )
@    Total charge of molecule:    0

@    Final HF energy:             -40.213465482910                 
@    Nuclear repulsion:            13.528078248198
@    Electronic energy:           -53.741543731108

@    Final gradient norm:           0.000002381967

 
     Date and time (Linux)  : Mon May  4 21:05:27 2026
     Host name              : debian                                  

File label for MO orbitals:   4May26   FOCKDIIS

 (Only coefficients > 0.0100 are printed.)

 Molecular orbitals for symmetry species 1  (A' )
 ------------------------------------------------

    Orbital         1        2        3        4        5        6        7
   1 C   :1s     0.9996  -0.0157   0.0000  -0.0000  -0.0352  -0.0000  -0.0000
   2 C   :1s     0.0033   0.7777  -0.0000   0.0000  -0.4974   0.0000  -0.0000
   3 C   :1s     0.0016  -0.0196  -0.0000   0.0000   0.0180   0.0000   0.0000
   4 C   :1s     0.0024  -0.1115  -0.0000  -0.0000  -3.6239   0.0000   0.0000
   5 C   :2py    0.0000   0.0000   0.6630   0.0003  -0.0000  -0.3622   0.0618
   6 C   :2pz   -0.0000   0.0000  -0.0003   0.6630  -0.0000  -0.0618  -0.3622
   7 C   :2py    0.0000  -0.0000  -0.0467  -0.0000   0.0000  -0.2327   0.0397
   8 C   :2pz    0.0000  -0.0000   0.0000  -0.0467   0.0000  -0.0397  -0.2327
   9 C   :2py   -0.0000   0.0000  -0.0904  -0.0000   0.0000  -1.6660   0.2843
  10 C   :2pz    0.0000  -0.0000   0.0000  -0.0904   0.0000  -0.2843  -1.6660
  11 C   :3d1-  -0.0000  -0.0000  -0.0103  -0.0000   0.0000  -0.0017   0.0003
  12 C   :3d0    0.0000  -0.0000  -0.0000   0.0179  -0.0000   0.0005   0.0030
  13 C   :3d2+  -0.0000  -0.0000  -0.0146  -0.0000   0.0000  -0.0024   0.0004
  14 C   :3d1-  -0.0000   0.0000  -0.0116  -0.0000  -0.0000   0.0906  -0.0155
  15 C   :3d0    0.0000  -0.0000  -0.0000   0.0201   0.0000  -0.0268  -0.1569
  16 C   :3d2+  -0.0000   0.0000  -0.0164  -0.0000  -0.0000   0.1281  -0.0219
  17 C   :4f3-  -0.0006  -0.0063  -0.0000   0.0004   0.0183  -0.0003  -0.0017
  19 C   :4f0    0.0007   0.0070  -0.0000   0.0003  -0.0205  -0.0003  -0.0015
  21 H2  :1s     0.0005   0.3469  -0.3470  -0.2455  -0.0274  -0.0334  -0.0160
  22 H2  :1s    -0.0009  -0.0855   0.0436   0.0308   0.2614  -0.1190  -0.0570
  23 H2  :1s    -0.0010  -0.1211   0.0748   0.0529   1.1383  -1.5750  -0.7539
  24 H2  :2px    0.0003  -0.0065   0.0075   0.0053   0.0100  -0.0153  -0.0073
  27 H2  :2px    0.0002  -0.0016   0.0112   0.0079  -0.1316   0.1247   0.0597
  28 H2  :2py   -0.0001   0.0009   0.0043  -0.0046   0.0760  -0.0359  -0.0406
  29 H2  :2pz   -0.0001   0.0006  -0.0046   0.0076   0.0537  -0.0448   0.0117
  35 H3  :1s     0.0005   0.3469   0.6942  -0.2451  -0.0274   0.0560  -0.0312
  36 H3  :1s    -0.0009  -0.0855  -0.0872   0.0308   0.2614   0.1995  -0.1113
  37 H3  :1s    -0.0010  -0.1211  -0.1496   0.0528   1.1383   2.6411  -1.4734
  38 H3  :2py    0.0003  -0.0075  -0.0125   0.0062   0.0115   0.0189  -0.0147
  39 H3  :2pz   -0.0001   0.0026   0.0062   0.0027  -0.0041  -0.0124  -0.0050
  40 H3  :2py    0.0003  -0.0018  -0.0151   0.0092  -0.1520  -0.2054   0.1286
  41 H3  :2pz   -0.0001   0.0006   0.0092   0.0076   0.0537   0.0915  -0.0116
  44 H3  :3d2+   0.0002  -0.0008  -0.0029   0.0016  -0.0071  -0.0106   0.0043
  45 H4  :1s     0.0005   0.3469  -0.0003   0.7362  -0.0274   0.0108   0.0632
  46 H4  :1s    -0.0009  -0.0855   0.0000  -0.0925   0.2614   0.0384   0.2252
  47 H4  :1s    -0.0010  -0.1211   0.0001  -0.1587   1.1383   0.5088   2.9812
  48 H4  :2py    0.0000  -0.0000   0.0049   0.0000   0.0000  -0.0108   0.0019
  49 H4  :2pz    0.0003  -0.0079   0.0000  -0.0147   0.0122   0.0042   0.0247
  50 H4  :2py   -0.0000  -0.0000   0.0108   0.0000   0.0000   0.0361  -0.0062
  51 H4  :2pz    0.0003  -0.0019   0.0000  -0.0183  -0.1612  -0.0432  -0.2531
  53 H4  :3d0   -0.0003   0.0011  -0.0000   0.0043   0.0092   0.0025   0.0146

    Orbital         8        9       10       11       12       13       14
   1 C   :1s    -0.0000  -0.0000   0.0729   0.0000  -0.0000   0.0000  -0.0028
   2 C   :1s     0.0000  -0.0000  -0.4762  -0.0000  -0.0000   0.0000  -0.1254
   3 C   :1s     0.0000  -0.0000  -0.0770  -0.0000  -0.0000  -0.0000   0.1375
   4 C   :1s     0.0000   0.0000   7.6793   0.0000  -0.0000  -0.0000  -5.9877
   5 C   :2py   -0.2432   0.0479   0.0000   0.8164   0.1371  -0.0000  -0.0000
   6 C   :2pz   -0.0479  -0.2432   0.0000   0.1371  -0.8164  -0.0000  -0.0000
   7 C   :2py    0.7225  -0.1422  -0.0000  -0.9894  -0.1661   0.0000   0.0000
   8 C   :2pz    0.1422   0.7225  -0.0000  -0.1661   0.9894   0.0000   0.0000
   9 C   :2py    2.4130  -0.4750  -0.0000  -2.9253  -0.4912  -0.0000   0.0000
  10 C   :2pz    0.4750   2.4130  -0.0000  -0.4912   2.9253  -0.0000   0.0000
  11 C   :3d1-   0.0004  -0.0001  -0.0000   0.0314   0.0053  -0.0125   0.0000
  12 C   :3d0   -0.0001  -0.0006   0.0000  -0.0091   0.0543  -0.0000   0.0000
  13 C   :3d2+   0.0005  -0.0001  -0.0000   0.0444   0.0074   0.0088  -0.0000
  14 C   :3d1-  -0.3184   0.0627   0.0000   0.5247   0.0881  -0.0425  -0.0000
  15 C   :3d0    0.1086   0.5516  -0.0000  -0.1526   0.9088   0.0000   0.0000
  16 C   :3d2+  -0.4503   0.0887   0.0000   0.7420   0.1246   0.0301  -0.0000
  17 C   :4f3-   0.0079   0.0403  -0.0764  -0.0049   0.0294  -0.0000   0.0853
  18 C   :4f1-  -0.0221   0.0043   0.0000   0.0161   0.0027   0.0000  -0.0000
  19 C   :4f0    0.0071   0.0361   0.0854  -0.0044   0.0263  -0.0000  -0.0954
  20 C   :4f2+   0.0494  -0.0097  -0.0000  -0.0360  -0.0060  -0.0000   0.0000
  21 H2  :1s     0.0952   0.0426   0.2797   0.2677  -0.1290  -0.0000   0.1798
  22 H2  :1s     1.0657   0.4773  -0.9986  -0.7104   0.3424   0.0000   1.5258
  23 H2  :1s     0.3663   0.1641  -1.4557  -1.5816   0.7623  -0.0000   0.5099
  24 H2  :2px   -0.0078  -0.0035   0.0022  -0.0091   0.0044  -0.0205  -0.0307
  25 H2  :2py    0.0237  -0.0018  -0.0012  -0.0093  -0.0050  -0.0237   0.0177
  26 H2  :2pz    0.0069   0.0206  -0.0009   0.0013   0.0128  -0.0168   0.0125
  27 H2  :2px   -0.2344  -0.1050   0.5434   0.5581  -0.2690   0.2666  -0.1266
  28 H2  :2py    0.0894   0.0696  -0.3137  -0.1100   0.1909   0.3079   0.0731
  29 H2  :2pz    0.0867  -0.0030  -0.2218  -0.1922  -0.1024   0.2177   0.0517
  30 H2  :3d2-  -0.0138  -0.0019   0.0269   0.0169  -0.0094  -0.0074  -0.0203
  31 H2  :3d1-   0.0150   0.0029  -0.0110  -0.0138   0.0015  -0.0042   0.0083
  32 H2  :3d0   -0.0081  -0.0130   0.0134   0.0110  -0.0178   0.0074  -0.0101
  33 H2  :3d1+  -0.0064  -0.0089   0.0190   0.0130  -0.0045  -0.0053  -0.0144
  34 H2  :3d2+   0.0125   0.0002  -0.0155  -0.0220   0.0034  -0.0099   0.0117
  35 H3  :1s    -0.1554   0.0919   0.2797  -0.4502  -0.2496  -0.0000   0.1798
  36 H3  :1s    -1.7407   1.0298  -0.9986   1.1947   0.6623  -0.0000   1.5258
  37 H3  :1s    -0.5984   0.3540  -1.4557   2.6596   1.4744   0.0000   0.5099
  38 H3  :2py    0.0338  -0.0124   0.0025   0.0030   0.0073   0.0119  -0.0354
  39 H3  :2pz   -0.0014   0.0223  -0.0009  -0.0087   0.0111   0.0335   0.0125
  40 H3  :2py    0.3962  -0.2525   0.6274  -0.8715  -0.5652  -0.1539  -0.1462
  41 H3  :2pz   -0.1653   0.0466  -0.2218   0.4188   0.0002  -0.4354   0.0517
  42 H3  :3d1-   0.0194  -0.0156   0.0219  -0.0326  -0.0132   0.0049  -0.0166
  43 H3  :3d0    0.0080  -0.0161   0.0134  -0.0123  -0.0218  -0.0149  -0.0101
  44 H3  :3d2+   0.0334  -0.0119   0.0310  -0.0444  -0.0216   0.0030  -0.0234
  45 H4  :1s    -0.0349  -0.1772   0.2797  -0.0853   0.5077  -0.0000   0.1798
  46 H4  :1s    -0.3907  -1.9845  -0.9986   0.2262  -1.3471  -0.0000   1.5258
  47 H4  :1s    -0.1343  -0.6821  -1.4557   0.5036  -2.9990   0.0000   0.5099
  48 H4  :2py    0.0192  -0.0038   0.0000  -0.0146  -0.0024   0.0356   0.0000
  49 H4  :2pz    0.0073   0.0369   0.0026   0.0011  -0.0065  -0.0000  -0.0376
  50 H4  :2py   -0.0459   0.0090  -0.0000   0.2122   0.0356  -0.4618   0.0000
  51 H4  :2pz    0.0962   0.4886   0.6655  -0.1820   1.0839   0.0000  -0.1551
  52 H4  :3d1-   0.0005  -0.0001   0.0000  -0.0095  -0.0016   0.0110  -0.0000
  53 H4  :3d0   -0.0087  -0.0444  -0.0403   0.0106  -0.0632   0.0000   0.0304
  54 H4  :3d2+   0.0122  -0.0024   0.0000  -0.0100  -0.0017   0.0116   0.0000

 Molecular orbitals for symmetry species 2  (A" )
 ------------------------------------------------

    Orbital         1        2        3        4        5        6        7
   1 C   :2px    0.6630   0.3675  -0.2479  -0.8278   0.0000  -0.0000   0.0000
   2 C   :2px   -0.0467   0.2360   0.7363   1.0032  -0.0000   0.0000  -0.0000
   3 C   :2px   -0.0904   1.6901   2.4593   2.9663  -0.0000   0.0000  -0.0000
   4 C   :3d2-  -0.0146   0.0025   0.0005  -0.0450  -0.0088   0.0000  -0.0000
   5 C   :3d1+  -0.0103   0.0017   0.0004  -0.0318   0.0125  -0.0000  -0.0000
   6 C   :3d2-  -0.0164  -0.1299  -0.4590  -0.7524  -0.0301  -0.0000   0.0000
   7 C   :3d1+  -0.0116  -0.0919  -0.3246  -0.5320   0.0425  -0.0000   0.0000
   8 C   :4f2-   0.0005   0.0021   0.0503   0.0365  -0.0000  -0.0303   0.0214
   9 C   :4f1+  -0.0002  -0.0009  -0.0225  -0.0163   0.0000  -0.0676   0.0478
  10 C   :4f3+   0.0000   0.0000  -0.0000   0.0000  -0.0000  -0.0524  -0.0741
  11 H2  :1s     0.6011  -0.0523  -0.1474   0.4203  -0.0000  -0.0000  -0.0000
  12 H2  :1s    -0.0755  -0.1866  -1.6514  -1.1153   0.0000  -0.0000   0.0000
  13 H2  :1s    -0.1296  -2.4694  -0.5676  -2.4829  -0.0000   0.0000  -0.0000
  14 H2  :2px   -0.0082  -0.0131   0.0316   0.0005  -0.0000  -0.0000  -0.0322
  15 H2  :2py    0.0075   0.0139  -0.0069   0.0082   0.0205  -0.0263  -0.0372
  16 H2  :2pz    0.0053   0.0098  -0.0049   0.0058  -0.0291   0.0372  -0.0263
  17 H2  :2px   -0.0086   0.1589   0.3164   0.6610  -0.0000   0.0000   0.4898
  18 H2  :2py    0.0112  -0.1129  -0.2097  -0.5059  -0.2666   0.4000   0.5656
  19 H2  :2pz    0.0079  -0.0798  -0.1483  -0.3577   0.3771  -0.5656   0.4000
  20 H2  :3d2-  -0.0027   0.0087   0.0275   0.0386   0.0013  -0.0126  -0.0004
  21 H2  :3d1-   0.0014  -0.0021  -0.0045  -0.0121   0.0053  -0.0002   0.0215
  22 H2  :3d0   -0.0008   0.0033   0.0095   0.0137   0.0129  -0.0006   0.0004
  23 H2  :3d1+  -0.0019   0.0062   0.0194   0.0273  -0.0018   0.0178  -0.0003
  24 H2  :3d2+   0.0004  -0.0043  -0.0132  -0.0151   0.0074  -0.0003  -0.0159
  25 H3  :2px    0.0049   0.0110   0.0196   0.0148   0.0356   0.0456   0.0322
  26 H3  :2px    0.0108  -0.0366  -0.0468  -0.2151  -0.4618  -0.6927  -0.4898
  27 H3  :3d2-  -0.0019   0.0013   0.0046   0.0124   0.0142   0.0132   0.0093
  28 H3  :3d1+   0.0006   0.0025   0.0116   0.0064   0.0073  -0.0174  -0.0123
  29 H4  :2px    0.0049   0.0110   0.0196   0.0148  -0.0356  -0.0456   0.0322
  30 H4  :2px    0.0108  -0.0366  -0.0468  -0.2151   0.4618   0.6927  -0.4898
  31 H4  :3d2-  -0.0001   0.0028   0.0124   0.0102  -0.0116   0.0120  -0.0085
  32 H4  :3d1+  -0.0020   0.0004   0.0005   0.0096  -0.0110  -0.0182   0.0129

    Orbital         8        9       10       11
   1 C   :2px   -0.3410   0.4165  -0.7145   0.0000
   2 C   :2px   -1.4981   0.0186  -4.6529  -0.0000
   3 C   :2px   -1.6494   1.3117  -1.8481  -0.0000
   4 C   :3d2-   0.0203  -0.0286   0.0922  -0.0016
   5 C   :3d1+   0.0144  -0.0202   0.0652   0.0023
   6 C   :3d2-   1.7731   1.1496   2.0147   1.6796
   7 C   :3d1+   1.2538   0.8129   1.4246  -2.3753
   8 C   :4f2-  -0.1202  -0.0898  -0.1353  -0.0000
   9 C   :4f1+   0.0538   0.0402   0.0605   0.0000
  11 H2  :1s    -0.2721   0.1494   0.0721  -0.0000
  12 H2  :1s     3.0687   0.3609   4.9923   0.0000
  13 H2  :1s     0.3199  -0.7226   1.4216   0.0000
  14 H2  :2px   -0.0719  -0.0101   0.0338  -0.0000
  15 H2  :2py    0.0292   0.0492  -0.0257   0.0492
  16 H2  :2pz    0.0206   0.0348  -0.0182  -0.0696
  17 H2  :2px   -0.2824  -0.5583  -2.6044  -0.0000
  18 H2  :2py    0.2211  -0.4077   1.4994  -0.7683
  19 H2  :2pz    0.1563  -0.2883   1.0603   1.0866
  20 H2  :3d2-  -0.0276   0.0075  -0.1192   0.0306
  21 H2  :3d1-   0.0041  -0.0053   0.0365   0.0150
  22 H2  :3d0   -0.0210  -0.0127  -0.0481   0.0368
  23 H2  :3d1+  -0.0195   0.0053  -0.0843  -0.0433
  24 H2  :3d2+   0.0335   0.0258   0.0576   0.0213
  25 H3  :2px   -0.0214   0.0751  -0.0107   0.0853
  26 H3  :2px    0.1005  -1.2645  -0.0073  -1.3308
  27 H3  :3d2-   0.0305   0.0522  -0.0195   0.0674
  28 H3  :3d1+  -0.0124  -0.0039  -0.0211  -0.0173
  29 H4  :2px   -0.0214   0.0751  -0.0107  -0.0853
  30 H4  :2px    0.1005  -1.2645  -0.0073   1.3308
  31 H4  :3d2-  -0.0015   0.0137  -0.0264  -0.0062
  32 H4  :3d1+   0.0329   0.0505  -0.0113  -0.0693

  Total CPU  time used in SIRIUS :   0.79 seconds
  Total wall time used in SIRIUS :   0.79 seconds

 
     Date and time (Linux)  : Mon May  4 21:05:27 2026
     Host name              : debian                                  


                     .---------------------------------------.
                     | End of Wave Function Section (SIRIUS) |
                     `---------------------------------------'

  Total CPU  time used in DALTON:   0.86 seconds
  Total wall time used in DALTON:   0.86 seconds

 
     Date and time (Linux)  : Mon May  4 21:05:27 2026
     Host name              : debian                                  
