

     ************************************************************************
     *************** Dalton - An Electronic Structure Program ***************
     ************************************************************************

    This is output from DALTON release Dalton2025.0-dev (2025)
         ( Web site: http://daltonprogram.org )

   ----------------------------------------------------------------------------

    NOTE:
     
    Dalton is an experimental code for the evaluation of molecular
    properties using (MC)SCF, DFT, CI, and CC wave functions.
    The authors accept no responsibility for the performance of
    the code or for the correctness of the results.
     
    The code (in whole or part) is provided under a licence and
    is not to be reproduced for further distribution without
    the written permission of the authors or their representatives.
     
    See the home page "http://daltonprogram.org" for further information.
     
    If results obtained with this code are published,
    the appropriate citations would be both of:
     
       K. Aidas, C. Angeli, K. L. Bak, V. Bakken,
       R. Bast, L. Boman, O. Christiansen, R. Cimiraglia,
       S. Coriani, P. Dahle, E. K. Dalskov, U. Ekstroem,
       T. Enevoldsen, J. J. Eriksen, P. Ettenhuber, B. Fernandez,
       L. Ferrighi, H. Fliegl, L. Frediani, K. Hald, A. Halkier,
       C. Haettig, H. Heiberg, T. Helgaker, A. C. Hennum,
       H. Hettema, E. Hjertenaes, S. Hoest, I.-M. Hoeyvik,
       M. F. Iozzi, B. Jansik, H. J. Aa. Jensen, D. Jonsson,
       P. Joergensen, J. Kauczor, S. Kirpekar,
       T. Kjaergaard, W. Klopper, S. Knecht, R. Kobayashi, H. Koch,
       J. Kongsted, A. Krapp, K. Kristensen, A. Ligabue,
       O. B. Lutnaes, J. I. Melo, K. V. Mikkelsen, R. H. Myhre,
       C. Neiss, C. B. Nielsen, P. Norman, J. Olsen,
       J. M. H. Olsen, A. Osted, M. J. Packer, F. Pawlowski,
       T. B. Pedersen, P. F. Provasi, S. Reine, Z. Rinkevicius,
       T. A. Ruden, K. Ruud, V. Rybkin, P. Salek, C. C. M. Samson,
       A. Sanchez de Meras, T. Saue, S. P. A. Sauer,
       B. Schimmelpfennig, K. Sneskov, A. H. Steindal,
       K. O. Sylvester-Hvid, P. R. Taylor, A. M. Teale,
       E. I. Tellgren, D. P. Tew, A. J. Thorvaldsen, L. Thoegersen,
       O. Vahtras, M. A. Watson, D. J. D. Wilson, M. Ziolkowski
       and H. Agren,
       "The Dalton quantum chemistry program system",
       WIREs Comput. Mol. Sci. 2014, 4:269-284 (doi: 10.1002/wcms.1172)
     
    and
     
       Dalton, a molecular electronic structure program,
       Release Dalton2025.0-dev (2025), see http://daltonprogram.org
   ----------------------------------------------------------------------------

    Authors in alphabetical order (Major contribution(s) in parenthesis):

  Kestutis Aidas,              Vilnius University,        Lithuania   (QM/MM)
  Celestino Angeli,            University of Ferrara,     Italy       (NEVPT2)
  Juan J. Aucar,               Northeast National UniversiArgentina   (LRESC, Relativistic Effects on NMR Shieldings and EFG)
  Keld L. Bak,                 UNI-C,                     Denmark     (AOSOPPA, non-adiabatic coupling, magnetic properties)
  Vebjoern Bakken,             University of Oslo,        Norway      (DALTON; geometry optimizer, symmetry detection)
  Radovan Bast,                UiT The Arctic U. of NorwayNorway      (DALTON installation and execution frameworks)
  Pablo Baudin,                University of Valencia,    Spain       (Cholesky excitation energies)
  Linus Boman,                 NTNU,                      Norway      (Cholesky decomposition and subsystems)
  Bruno N. Cabral Tenorio,     Technical Univ. of Denmark,Denmark     (Lanczos-based CC methods)
  Ove Christiansen,            Aarhus University,         Denmark     (CC module)
  Renzo Cimiraglia,            University of Ferrara,     Italy       (NEVPT2)
  Sonia Coriani,               Technical Univ. of Denmark,Denmark     (CC and RESPONS modules)
  Janusz Cukras,               University of Warsaw,      Poland      (MChD in RESPONS)
  Paal Dahle,                  University of Oslo,        Norway      (Parallelization)
  Erik K. Dalskov,             UNI-C,                     Denmark     (SOPPA)
  Thomas Enevoldsen,           Univ. of Southern Denmark, Denmark     (SOPPA)
  Janus J. Eriksen,            Aarhus University,         Denmark     (Polarizable embedding, TDA)
  Rasmus Faber,                Technical Univ. of Denmark,Denmark     (Vib.avg. NMR w. SOPPA, parallel AO-SOPPA, CVS-CC and EOMCC)
  Tobias Fahleson,             KTH Stockholm,             Sweden      (Damped cubic response)
  Berta Fernandez,             U. of Santiago de CompostelSpain       (Doublet spin, ESR in RESPONS)
  Lara Ferrighi,               Aarhus University,         Denmark     (PCM Cubic response)
  Heike Fliegl,                University of Oslo,        Norway      (CCSD(R12))
  Luca Frediani,               UiT The Arctic U. of NorwayNorway      (PCM)
  Emmanuel Fromager,           Univ. Strasbourg,          France      (MC-srDFT)
  Bin Gao,                     UiT The Arctic U. of NorwayNorway      (Gen1Int library)
  Andre S. P. Gomes,           CNRS/Universite de Lille,  France      (Frozen density embedding)
  Christof Haettig,            Ruhr-University Bochum,    Germany     (CC module)
  Kasper Hald,                 Aarhus University,         Denmark     (CC module)
  Asger Halkier,               Aarhus University,         Denmark     (CC module)
  Frederik Beyer Hansen,       University of Copenhagen,  Denmark     (Parallel AO-SOPPA)
  Erik D. Hedegaard,           Univ. of Southern Denmark, Denmark     (Polarizable embedding, QM/MM, and MC-srDFT)
  Hanne Heiberg,               University of Oslo,        Norway      (Geometry analysis, selected one-electron integrals)
  Trygve Helgaker,             University of Oslo,        Norway      (DALTON; ABACUS, ERI, DFT modules, London, and much more)
  Alf Christian Hennum,        University of Oslo,        Norway      (Parity violation)
  Hinne Hettema,               University of Auckland,    New Zealand (Quadratic response in RESPONS; SIRIUS supersymmetry)
  Andreas E. Hillers-Bendtsen, University of Copenhagen,  Denmark     (MP3)
  Eirik Hjertenaes,            NTNU,                      Norway      (Cholesky decomposition)
  Nicolai Machholdt Hoeyer,    Aarhus University,         Denmark     (MP3)
  Pi A. B. Haase,              University of Copenhagen,  Denmark     (Triplet AO-SOPPA)
  Maria Francesca Iozzi,       University of Oslo,        Norway      (RPA)
  Christoph Jacob,             TU Braunschweig            Germany     (Frozen density embedding)
  Brano Jansik,                Technical Univ. of Ostrava Czech Rep.  (DFT cubic response)
  Hans Joergen Aa. Jensen,     Univ. of Southern Denmark, Denmark     (DALTON; SIRIUS, RESPONS, ABACUS, MC-srDFT, and much more)
  Dan Jonsson,                 UiT The Arctic U. of NorwayNorway      (Cubic response in RESPONS module)
  Poul Joergensen,             Aarhus University,         Denmark     (RESPONS, ABACUS, and CC modules)
  Maciej Kaminski,             University of Warsaw,      Poland      (CPPh in RESPONS)
  Joanna Kauczor,              Linkoeping University,     Sweden      (Complex polarization propagator (CPP) module)
  Sheela Kirpekar,             Univ. of Southern Denmark, Denmark     (Mass-velocity & Darwin integrals)
  Frederik Oersted Kjeldal,    Technical Univ. of Denmark,Denmark     (MP3)
  Erik Kjellgren,              Univ. of Southern Denmark, Denmark     (MC-srDFT)
  Wim Klopper,                 KIT Karlsruhe,             Germany     (R12 code in CC, SIRIUS, and ABACUS modules)
  Stefan Knecht,               ETH Zurich,                Switzerland (Parallel CI and MCSCF, MC-srDFT)
  Rika Kobayashi,              Australian National Univ., Australia   (DIIS in CC, London in MCSCF)
  Henrik Koch,                 NTNU,                      Norway      (CC module, Cholesky decomposition)
  Jacob Kongsted,              Univ. of Southern Denmark, Denmark     (Polarizable embedding, polarizable density embedding, QM/MM)
  Andrea Ligabue,              University of Modena,      Italy       (CTOCD, AOSOPPA)
  Nanna H. List,               Univ. of Southern Denmark, Denmark     (Polarizable embedding)
  Ola B. Lutnaes,              University of Oslo,        Norway      (DFT Hessian)
  Juan I. Melo,                University of Buenos Aires,Argentina   (LRESC, Relativistic Effects on NMR Shieldings)
  Kurt V. Mikkelsen,           University of Copenhagen,  Denmark     (MC-SCRF, QM/MM, and MP3)
  Rolf H. Myhre,               NTNU,                      Norway      (Subsystems and CC3)
  Christian Neiss,             Univ. Erlangen-Nuernberg,  Germany     (CCSD(R12))
  Christian B. Nielsen,        University of Copenhagen,  Denmark     (QM/MM)
  Patrick Norman,              KTH Stockholm,             Sweden      (Cubic response and complex frequency response in RESPONS)
  Jeppe Olsen,                 Aarhus University,         Denmark     (SIRIUS CI/density modules)
  Jogvan Magnus H. Olsen,      Aarhus University,         Denmark     (Polarizable embedding and polarizable density embedding)
  Anders Osted,                Copenhagen University,     Denmark     (QM/MM)
  Martin J. Packer,            University of Sheffield,   UK          (SOPPA)
  Filip Pawlowski,             Kazimierz Wielki UniversityPoland      (CC3)
  Morten N. Pedersen,          Univ. of Southern Denmark, Denmark     (Polarizable embedding)
  Thomas B. Pedersen,          University of Oslo,        Norway      (Cholesky decomposition)
  Patricio F. Provasi,         University of Northeastern,Argentina   (Analysis of coupling constants in localized orbitals)
  Peter Reinholdt,             Univ. of Southern Denmark, Denmark     (Polarizable embedding and polarizable density embedding)
  Zilvinas Rinkevicius,        KTH Stockholm,             Sweden      (open-shell DFT, ESR)
  Elias Rudberg,               KTH Stockholm,             Sweden      (DFT grid and basis info)
  Torgeir A. Ruden,            University of Oslo,        Norway      (Numerical derivatives in ABACUS)
  Kenneth Ruud,                UiT The Arctic U. of NorwayNorway      (DALTON; ABACUS magnetic properties and much more)
  Pawel Salek,                 KTH Stockholm,             Sweden      (DALTON; DFT code)
  Claire C. M. Samson,         University of Karlsruhe    Germany     (Boys localization, r12 integrals in ERI)
  Alfredo Sanchez de Meras,    University of Valencia,    Spain       (CC module, Cholesky decomposition)
  Trond Saue,                  Paul Sabatier University,  France      (direct Fock matrix construction)
  Stephan P. A. Sauer,         University of Copenhagen,  Denmark     (SOPPA(CCSD), SOPPA prop., AOSOPPA, vibrational g-factors)
  Bernd Schimmelpfennig,       Forschungszentrum KarlsruheGermany     (AMFI module)
  Anna K. Schnack-Petersen,    University of Copenhagen,  Denmark     (RPA(D) and HRPA(D) properties in AOSOPPA)
  Kristian Sneskov,            Aarhus University,         Denmark     (Polarizable embedding, QM/MM)
  Arnfinn H. Steindal,         UiT The Arctic U. of NorwayNorway      (parallel QM/MM, polarizable embedding)
  Casper Steinmann,            Aalborg University,        Denmark     (QFIT, polarizable embedding)
  K. O. Sylvester-Hvid,        University of Copenhagen,  Denmark     (MC-SCRF)
  Peter R. Taylor,             VLSCI/Univ. of Melbourne,  Australia   (Symmetry handling ABACUS, integral transformation)
  Andrew M. Teale,             University of Nottingham,  England     (DFT-AC, DFT-D)
  David P. Tew,                University of Bristol,     England     (CCSD(R12))
  Julien Toulouse,             Sorbonne Univ.,            France      (MC-srDFT)
  Olav Vahtras,                KTH Stockholm,             Sweden      (Triplet response, spin-orbit, ESR, TDDFT, open-shell DFT)
  Lucas Visscher,              Vrije Universiteit AmsterdaNetherlands (Frozen density embedding)
  David J. Wilson,             La Trobe University,       Australia   (DFT Hessian and DFT magnetizabilities)
  Luna Zamok,                  University of Copenhagen,  Denmark     (Block Lanczos RPA solver in SOPPA module)
  Hans Agren,                  KTH Stockholm,             Sweden      (SIRIUS module, RESPONS, MC-SCRF solvation)
 --------------------------------------------------------------------------------

     Date and time (Linux)  : Thu May  7 17:38:02 2026
     Host name              : debian                                  

 * Work memory size             :    64000000 =  488.28 megabytes.

 * Directories for basis set searches:
   1) /home/vdwv/DIPLOM_ITMO/CALCULATIONS_AND_SOFTS/softwares/Dalton_Shenanigans/dalton/dalton/build/diplom_files/ch3cooh_acetic_acid/dft/ch3cooh_acetic_acid_dft_b3lyp_ccpvtz
   2) /home/vdwv/DIPLOM_ITMO/CALCULATIONS_AND_SOFTS/softwares/Dalton_Shenanigans/dalton/dalton/build/basis


Compilation information
-----------------------

 Who compiled             | vdwv
 Host                     | debian
 System                   | Linux-6.12.73+deb13-amd64
 CMake generator          | Unix Makefiles
 Processor                | x86_64
 64-bit integers          | OFF
 MPI                      | OFF
 Fortran compiler         | /usr/bin/gfortran
 Fortran compiler version | GNU Fortran (Debian 14.2.0-19) 14.2.0
 C compiler               | /usr/bin/gcc
 C compiler version       | gcc (Debian 14.2.0-19) 14.2.0
 C++ compiler             | /usr/bin/g++
 C++ compiler version     | g++ (Debian 14.2.0-19) 14.2.0
 BLAS                     | /opt/intel/oneapi/mkl/2025.3/lib/intel64/libmkl_gf
                          | _lp64.so;/opt/intel/oneapi/mkl/2025.3/lib/intel64/
                          | libmkl_sequential.so;/opt/intel/oneapi/mkl/2025.3/
                          | lib/intel64/libmkl_core.so;/usr/lib/x86_64-linux-g
                          | nu/libpthread.a;/usr/lib/x86_64-linux-gnu/libm.so
 LAPACK                   | /opt/intel/oneapi/mkl/2025.3/lib/intel64/libmkl_la
                          | pack95_lp64.a;/opt/intel/oneapi/mkl/2025.3/lib/int
                          | el64/libmkl_gf_lp64.so
 Static linking           | OFF
 Last Git revision        | 1892235f9264b9be21ec2fefe6e0081d659ab244
 Git branch               | master
 Configuration time       | 2026-05-04 17:50:26.788788

 * Sequential calculation.


   Content of the .dal input file
 ----------------------------------

BASIS
cc-pVTZ
Acetic acid CH3COOH using the cc-pVTZ basis
Using automatic symmetry detection
AtomTypes=3 Angstrom
Charge=6.0 Atoms=2
C1    1.064     -0.905      0.000
C2    0.000      0.156      0.000
Charge=8.0 Atoms=2
O3    0.185      1.345      0.000
O7   -1.243     -0.386      0.000
Charge=1.0 Atoms=4
H4    2.044     -0.438      0.000
H5    0.953     -1.542      0.878
H6    0.953     -1.542     -0.878
H8   -1.869      0.352      0.000

**DALTON INPUT
.RUN WAVE FUN
**WAVE FUN
.DFT
 B3LYP
**END OF



       *******************************************************************
       *********** Output from DALTON general input processing ***********
       *******************************************************************

 --------------------------------------------------------------------------------
   Overall default print level:    0
   Print level for DALTON.STAT:    1

    HERMIT 1- and 2-electron integral sections will be executed
    "Old" integral transformation used (limited to max 255 basis functions)
    Wave function sections will be executed (SIRIUS module)
 --------------------------------------------------------------------------------


   ****************************************************************************
   *************** Output of molecule and basis set information ***************
   ****************************************************************************


    The two title cards from your ".mol" input:
    --------------------------------------------------------------------------------
 1: Acetic acid CH3COOH using the cc-pVTZ basis
 2: Using automatic symmetry detection
    --------------------------------------------------------------------------------

  Coordinates are entered in Angstrom and converted to atomic units.
          - Conversion factor : 1 bohr = 0.52917721080 A

  Atomic type no.    1
  --------------------
  Nuclear charge:   6.00000
  Number of symmetry independent centers:    2
  Number of basis sets to read;    2
  Basis set file used for this atomic type with Z =   6 :
     "/home/vdwv/DIPLOM_ITMO/CALCULATIONS_AND_SOFTS/softwares/Dalton_Shenanigans/dalton/dalton/build/basis/cc-pVTZ"

  Atomic type no.    2
  --------------------
  Nuclear charge:   8.00000
  Number of symmetry independent centers:    2
  Number of basis sets to read;    2
  Basis set file used for this atomic type with Z =   8 :
     "/home/vdwv/DIPLOM_ITMO/CALCULATIONS_AND_SOFTS/softwares/Dalton_Shenanigans/dalton/dalton/build/basis/cc-pVTZ"

  Atomic type no.    3
  --------------------
  Nuclear charge:   1.00000
  Number of symmetry independent centers:    4
  Number of basis sets to read;    2
  Basis set file used for this atomic type with Z =   1 :
     "/home/vdwv/DIPLOM_ITMO/CALCULATIONS_AND_SOFTS/softwares/Dalton_Shenanigans/dalton/dalton/build/basis/cc-pVTZ"


                      SYMADD: Addition of symmetry requested
                      --------------------------------------

 Symmetry test threshold:  5.00E-06

@  The molecule has been centered at center of mass and rotated
@  so the principal axes of inertia are along coordinate axes.

 Symmetry class found: C(s)           

 Symmetry Independent Centres             
 ----------------------------
O7     8 :     -1.26690930    -2.07345900     0.00000000  Isotope  1
O3     8 :     -1.20104356     2.16657866     0.00000000  Isotope  1
C2     6 :     -0.07140318     0.19309909     0.00000000  Isotope  1
C1     6 :      2.75102338    -0.11789801     0.00000000  Isotope  1
H8     1 :     -3.06168831    -1.72254316     0.00000000  Isotope  1
H5     1 :      3.33867356    -1.18920271     1.65917954  Isotope  1
H4     1 :      3.64676659     1.72766552     0.00000000  Isotope  1

 The following symmetry element was found:   Z        


                         SYMGRP: Point group information
                         -------------------------------

@    Full point group is: C(s)           
@    Represented as:      Cs 

@  * The irrep name for each symmetry:    1: A'     2: A" 

   * The point group was generated by:

      Reflection in the xy-plane

   * Group multiplication table

        |  E   Oxy
   -----+----------
     E  |  E   Oxy
    Oxy | Oxy   E 

   * Character table

        |  E   Oxy
   -----+----------
    A'  |   1    1
    A"  |   1   -1

   * Direct product table

        | A'   A" 
   -----+----------
    A'  | A'   A" 
    A"  | A"   A' 


                                 Isotopic Masses
                                 ---------------

                           C1         12.000000
                           C2         12.000000
                           O3         15.994915
                           O7         15.994915
                           H4          1.007825
                           H5  _1      1.007825
                           H5  _2      1.007825
                           H8          1.007825

                       Total mass:    60.021130 amu
                       Natural abundance:  97.285 %

 Center-of-mass coordinates (a.u.):    0.000000   -0.000000    0.000000
 Center-of-mass coordinates (Angs):    0.000000   -0.000000    0.000000


  Atoms and basis sets
  --------------------

  Number of atom types :    3
  Total number of atoms:    8

  Basis set used is "cc-pVTZ" from the basis set library.

  label    atoms   charge   prim   cont     basis
  ----------------------------------------------------------------------
  C2          2    6.0000    42    30      [10s5p2d1f|4s3p2d1f]                               
  O7          2    8.0000    42    30      [10s5p2d1f|4s3p2d1f]                               
  H8          4    1.0000    16    14      [5s2p1d|3s2p1d]                                    
  ----------------------------------------------------------------------
  total:      8   32.0000   232   176
  ----------------------------------------------------------------------
  Spherical harmonic basis used.

  Threshold for neglecting AO integrals:  1.00D-12


  Cartesian Coordinates (bohr)
  ----------------------------

  Total number of coordinates:   24
  C1      :     1  x   2.7510233802    2  y  -0.1178980101    3  z   0.0000000000
  C2      :     4  x  -0.0714031790    5  y   0.1930990855    6  z   0.0000000000
  O3      :     7  x  -1.2010435636    8  y   2.1665786608    9  z   0.0000000000
  O7      :    10  x  -1.2669093003   11  y  -2.0734589972   12  z   0.0000000000
  H4      :    13  x   3.6467665862   14  y   1.7276655153   15  z   0.0000000000
  H5  / 1 :    16  x   3.3386735584   17  y  -1.1892027108   18  z   1.6591795377
  H5  / 2 :    19  x   3.3386735584   20  y  -1.1892027108   21  z  -1.6591795377
  H8      :    22  x  -3.0616883142   23  y  -1.7225431619   24  z   0.0000000000


  Cartesian Coordinates (xyz format; angstrom)
  --------------------------------------------

    8

  C        1.4557788792           -0.0623889401            0.0000000000
  C       -0.0377849351            0.1021836355            0.0000000000
  O       -0.6355648830            1.1465040527            0.0000000000
  O       -0.6704195299           -1.0972272489            0.0000000000
  H        1.9297857705            0.9142412186            0.0000000000
  H        1.7667499614           -0.6292989736            0.8780000000
  H        1.7667499614           -0.6292989736           -0.8780000000
  H       -1.6201756825           -0.9115305859            0.0000000000


  Symmetry Coordinates
  --------------------

  Number of coordinates in each symmetry:    15    9

  Symmetry  A'  ( 1)

    1   C1    x    1
    2   C1    y    2
    3   C2    x    4
    4   C2    y    5
    5   O3    x    7
    6   O3    y    8
    7   O7    x   10
    8   O7    y   11
    9   H4    x   13
   10   H4    y   14
   11   H5    x    [ 16  +   19 ]/2
   12   H5    y    [ 17  +   20 ]/2
   13   H5    z    [ 18  -   21 ]/2
   14   H8    x   22
   15   H8    y   23

  Symmetry  A"  ( 2)

   16   C1    z    3
   17   C2    z    6
   18   O3    z    9
   19   O7    z   12
   20   H4    z   15
   21   H5    x    [ 16  -   19 ]/2
   22   H5    y    [ 17  -   20 ]/2
   23   H5    z    [ 18  +   21 ]/2
   24   H8    z   24


   Interatomic separations (in Angstrom):
   --------------------------------------

            C1          C2          O3          O7          H4          H5  _1
            ------      ------      ------      ------      ------      ------
 C1    :    0.000000
 C2    :    1.502603    0.000000
 O3    :    2.415604    1.203306    0.000000
 O7    :    2.364659    1.356028    2.244002    0.000000
 H4    :    1.085582    2.128561    2.575844    3.287411    0.000000
 H5  _1:    1.090401    2.135953    3.113756    2.632420    1.783250    0.000000
 H5  _2:    1.090401    2.135953    3.113756    2.632420    1.783250    1.756000
 H8    :    3.191009    1.879249    2.281439    0.967740    3.991951    3.510243

            H5  _2      H8    
            ------      ------
 H5  _2:    0.000000
 H8    :    3.510243    0.000000


  Max    interatomic separation is    3.9920 Angstrom (    7.5437 Bohr)
  between atoms    8 and    5, "H8    " and "H4    ".

  Min HX interatomic separation is    0.9677 Angstrom (    1.8288 Bohr)

  Min YX interatomic separation is    1.2033 Angstrom (    2.2739 Bohr)


  Bond distances (Angstrom):
  --------------------------

                  atom 1     atom 2       distance
                  ------     ------       --------
  bond distance:  C2         C1           1.502603
  bond distance:  O3         C2           1.203306
  bond distance:  O7         C2           1.356028
  bond distance:  H4         C1           1.085582
  bond distance:  H5  _1     C1           1.090401
  bond distance:  H5  _2     C1           1.090401
  bond distance:  H8         O7           0.967740


  Bond angles (degrees):
  ----------------------

                  atom 1     atom 2     atom 3         angle
                  ------     ------     ------         -----
  bond angle:     C2         C1         H4           109.602
  bond angle:     C2         C1         H5  _1       109.902
  bond angle:     C2         C1         H5  _2       109.902
  bond angle:     H4         C1         H5  _1       110.072
  bond angle:     H4         C1         H5  _2       110.072
  bond angle:     H5  _1     C1         H5  _2       107.261
  bond angle:     C1         C2         O3           126.075
  bond angle:     C1         C2         O7           111.522
  bond angle:     O3         C2         O7           122.403
  bond angle:     C2         O7         H8           106.747




 Principal moments of inertia (u*A**2) and principal axes
 --------------------------------------------------------

   IA      44.485099          1.000000    0.000000    0.000000
   IB      53.342996          0.000000    1.000000    0.000000
   IC      94.720431          0.000000    0.000000    1.000000


 Rotational constants
 --------------------

               A                   B                   C

          11360.6358           9474.1398           5335.4804 MHz
            0.378950            0.316023            0.177972 cm-1


@  Nuclear repulsion energy :  121.191449977221 Hartree


  Symmetry Orbitals
  -----------------

  Number of orbitals in each symmetry:         114   62


  Symmetry  A' ( 1)

    1     C1       1s         1
    2     C1       1s         2
    3     C1       1s         3
    4     C1       1s         4
    5     C1       2px        5
    6     C1       2py        6
    7     C1       2px        8
    8     C1       2py        9
    9     C1       2px       11
   10     C1       2py       12
   11     C1       3d2-      14
   12     C1       3d0       16
   13     C1       3d2+      18
   14     C1       3d2-      19
   15     C1       3d0       21
   16     C1       3d2+      23
   17     C1       4f3-      24
   18     C1       4f1-      26
   19     C1       4f1+      28
   20     C1       4f3+      30
   21     C2       1s        31
   22     C2       1s        32
   23     C2       1s        33
   24     C2       1s        34
   25     C2       2px       35
   26     C2       2py       36
   27     C2       2px       38
   28     C2       2py       39
   29     C2       2px       41
   30     C2       2py       42
   31     C2       3d2-      44
   32     C2       3d0       46
   33     C2       3d2+      48
   34     C2       3d2-      49
   35     C2       3d0       51
   36     C2       3d2+      53
   37     C2       4f3-      54
   38     C2       4f1-      56
   39     C2       4f1+      58
   40     C2       4f3+      60
   41     O3       1s        61
   42     O3       1s        62
   43     O3       1s        63
   44     O3       1s        64
   45     O3       2px       65
   46     O3       2py       66
   47     O3       2px       68
   48     O3       2py       69
   49     O3       2px       71
   50     O3       2py       72
   51     O3       3d2-      74
   52     O3       3d0       76
   53     O3       3d2+      78
   54     O3       3d2-      79
   55     O3       3d0       81
   56     O3       3d2+      83
   57     O3       4f3-      84
   58     O3       4f1-      86
   59     O3       4f1+      88
   60     O3       4f3+      90
   61     O7       1s        91
   62     O7       1s        92
   63     O7       1s        93
   64     O7       1s        94
   65     O7       2px       95
   66     O7       2py       96
   67     O7       2px       98
   68     O7       2py       99
   69     O7       2px      101
   70     O7       2py      102
   71     O7       3d2-     104
   72     O7       3d0      106
   73     O7       3d2+     108
   74     O7       3d2-     109
   75     O7       3d0      111
   76     O7       3d2+     113
   77     O7       4f3-     114
   78     O7       4f1-     116
   79     O7       4f1+     118
   80     O7       4f3+     120
   81     H4       1s       121
   82     H4       1s       122
   83     H4       1s       123
   84     H4       2px      124
   85     H4       2py      125
   86     H4       2px      127
   87     H4       2py      128
   88     H4       3d2-     130
   89     H4       3d0      132
   90     H4       3d2+     134
   91     H5       1s       135 +  136
   92     H5       1s       137 +  138
   93     H5       1s       139 +  140
   94     H5       2px      141 +  142
   95     H5       2py      143 +  144
   96     H5       2pz      145 -  146
   97     H5       2px      147 +  148
   98     H5       2py      149 +  150
   99     H5       2pz      151 -  152
  100     H5       3d2-     153 +  154
  101     H5       3d1-     155 -  156
  102     H5       3d0      157 +  158
  103     H5       3d1+     159 -  160
  104     H5       3d2+     161 +  162
  105     H8       1s       163
  106     H8       1s       164
  107     H8       1s       165
  108     H8       2px      166
  109     H8       2py      167
  110     H8       2px      169
  111     H8       2py      170
  112     H8       3d2-     172
  113     H8       3d0      174
  114     H8       3d2+     176


  Symmetry  A" ( 2)

  115     C1       2pz        7
  116     C1       2pz       10
  117     C1       2pz       13
  118     C1       3d1-      15
  119     C1       3d1+      17
  120     C1       3d1-      20
  121     C1       3d1+      22
  122     C1       4f2-      25
  123     C1       4f0       27
  124     C1       4f2+      29
  125     C2       2pz       37
  126     C2       2pz       40
  127     C2       2pz       43
  128     C2       3d1-      45
  129     C2       3d1+      47
  130     C2       3d1-      50
  131     C2       3d1+      52
  132     C2       4f2-      55
  133     C2       4f0       57
  134     C2       4f2+      59
  135     O3       2pz       67
  136     O3       2pz       70
  137     O3       2pz       73
  138     O3       3d1-      75
  139     O3       3d1+      77
  140     O3       3d1-      80
  141     O3       3d1+      82
  142     O3       4f2-      85
  143     O3       4f0       87
  144     O3       4f2+      89
  145     O7       2pz       97
  146     O7       2pz      100
  147     O7       2pz      103
  148     O7       3d1-     105
  149     O7       3d1+     107
  150     O7       3d1-     110
  151     O7       3d1+     112
  152     O7       4f2-     115
  153     O7       4f0      117
  154     O7       4f2+     119
  155     H4       2pz      126
  156     H4       2pz      129
  157     H4       3d1-     131
  158     H4       3d1+     133
  159     H5       1s       135 -  136
  160     H5       1s       137 -  138
  161     H5       1s       139 -  140
  162     H5       2px      141 -  142
  163     H5       2py      143 -  144
  164     H5       2pz      145 +  146
  165     H5       2px      147 -  148
  166     H5       2py      149 -  150
  167     H5       2pz      151 +  152
  168     H5       3d2-     153 -  154
  169     H5       3d1-     155 +  156
  170     H5       3d0      157 -  158
  171     H5       3d1+     159 +  160
  172     H5       3d2+     161 -  162
  173     H8       2pz      168
  174     H8       2pz      171
  175     H8       3d1-     173
  176     H8       3d1+     175

  Symmetries of electric field:  A' (1)  A' (1)  A" (2)

  Symmetries of magnetic field:  A" (2)  A" (2)  A' (1)


                     .---------------------------------------.
                     | Starting in Integral Section (HERMIT) |
                     `---------------------------------------'



 ***************************************************************************************
 ****************** Output from **INTEGRALS input processing (HERMIT) ******************
 ***************************************************************************************


 - Using defaults, no **INTEGRALS input found

 Default print level:        1

 Calculation of one- and two-electron Hamiltonian integrals.

 Center of mass  (bohr):      0.000000000000     -0.000000000000      0.000000000000
 Operator center (bohr):      0.000000000000      0.000000000000      0.000000000000
 Gauge origin    (bohr):      0.000000000000     -0.000000000000      0.000000000000
 Dipole origin   (bohr):      0.000000000000     -0.000000000000      0.000000000000

Calculation of 2-electron integrals are postponed until they are needed.


     ************************************************************************
     ************************** Output from HERINT **************************
     ************************************************************************



                      Nuclear contribution to dipole moments
                      --------------------------------------

                 au               Debye          C m (/(10**-30)

      x      3.59652368         9.14145080        30.49259764
      y     -1.17711931        -2.99193865        -9.98003310


  Total CPU  time used in HERMIT:   0.23 seconds
  Total wall time used in HERMIT:   0.23 seconds


                        .----------------------------------.
                        | End of Integral Section (HERMIT) |
                        `----------------------------------'



                   .--------------------------------------------.
                   | Starting in Wave Function Section (SIRIUS) |
                   `--------------------------------------------'


 *** Output from Huckel module :

     Using EWMO model:          F
     Using EHT  model:          T
     Number of Huckel orbitals each symmetry:   19    5

 Huckel EHT eigenvalues for symmetry :  1
          -20.708675     -20.705398     -11.389789     -11.374135      -1.664347
           -1.404819      -1.236120      -0.784619      -0.723526      -0.692396
           -0.572465      -0.560430      -0.487118      -0.283866      -0.261736
           -0.219011      -0.210896      -0.192791      -0.180023

 Huckel EHT eigenvalues for symmetry :  2
           -0.762363      -0.597013      -0.580033      -0.310904      -0.199726

 **********************************************************************
 *SIRIUS* a direct, restricted step, second order MCSCF program       *
 **********************************************************************

 
     Date and time (Linux)  : Thu May  7 17:38:02 2026
     Host name              : debian                                  

 Title lines from ".mol" input file:
     Acetic acid CH3COOH using the cc-pVTZ basis
     Using automatic symmetry detection

 Print level on unit LUPRI =   2 is   0
 Print level on unit LUW4  =   2 is   5

@    Restricted, closed shell Kohn-Sham DFT calculation.

 Initial molecular orbitals are obtained according to
 ".MOSTART EHT   " input option

     Wave function specification
     ============================
@    Wave function type        --- KS-DFT ---
@    Number of closed shell electrons          32
@    Number of electrons in active shells       0
@    Total charge of the molecule               0

@    Spin multiplicity and 2 M_S                1         0
@    Total number of symmetries                 2 (point group: Cs )
@    Reference state symmetry                   1 (irrep name : A' )
 
     This is a DFT calculation of type: B3LYP
 Weighted mixed functional:
               HF exchange:    0.20000
                       VWN:    0.19000
                       LYP:    0.81000
                     Becke:    0.72000
                    Slater:    0.80000

     Orbital specifications
     ======================
@    Abelian symmetry species          All |    1    2
@                                          |  A'   A" 
                                       --- |  ---  ---
@    Total number of orbitals          176 |  114   62
@    Number of basis functions         176 |  114   62

      ** Automatic occupation of RKS orbitals **

      -- Initial occupation of symmetries is determined from extended Huckel guess.           
      -- Initial occupation of symmetries is :
@    Occupied SCF orbitals              16 |   13    3

     Maximum number of Fock   iterations      0
     Maximum number of DIIS   iterations     60
     Maximum number of QC-SCF iterations     60
     Threshold for SCF convergence     1.00D-05
 
     This is a DFT calculation of type: B3LYP
 Weighted mixed functional:
               HF exchange:    0.20000
                       VWN:    0.19000
                       LYP:    0.81000
                     Becke:    0.72000
                    Slater:    0.80000


 ***********************************************
 ***** DIIS acceleration of SCF iterations *****
 ***********************************************

 C1-DIIS algorithm; max error vectors =    8

 Automatic occupation of symmetries with  32 electrons.

 Iter     Total energy    Error norm  Delta(E)    SCF occupation
 -----------------------------------------------------------------------------

---> (Re)generating AOTWOINT


     ************************************************************************
     ************************** Output from HERINT **************************
     ************************************************************************


***  INFO  GETGAB: GABSO--- not found on AOGABINT. Regenerating.

 Threshold for neglecting two-electron integrals:  1.00D-12
 HERMIT - Number of two-electron integrals written:    58574479 ( 48.3% )
 HERMIT - Megabytes written:                            670.459

 2-el. screening, shell pairs skipped          63
  Total CPU  time used in TWOINT:   9.96 seconds
  Total wall time used in TWOINT:   9.98 seconds
  Time used in TWOINT     is      10.04 seconds
      K-S energy, electrons, error :    -23.571870623562  32.0000005372    5.37D-07
@  1  -228.081138191       4.72D+00  -2.28D+02    13   3
      Virial theorem: -V/T =      1.998791
@    MULPOP   C1     -0.05; C2      1.19; O3     -0.95; O7     -0.51; H4     -0.01; H5  _1  0.04; H5  _2  0.04; H8      0.25; 
   1  Level shift: doubly occupied orbital energies shifted by -2.00D-01
 -----------------------------------------------------------------------------
      K-S energy, electrons, error :    -23.785283950597  32.0000009402    9.40D-07
@  2  -228.179687675       4.48D+00  -9.85D-02    13   3
      Virial theorem: -V/T =      2.002218
@    MULPOP   C1     -0.78; C2     -1.16; O3      1.00; O7     -0.09; H4      0.29; H5  _1  0.26; H5  _2  0.26; H8      0.24; 
   2  Level shift: doubly occupied orbital energies shifted by -2.00D-01
 -----------------------------------------------------------------------------
      K-S energy, electrons, error :    -23.910674530607  32.0000007713    7.71D-07
@  3  -229.015357644       1.11D+00  -8.36D-01    13   3
      Virial theorem: -V/T =      2.000613
@    MULPOP   C1     -0.37; C2      0.35; O3     -0.43; O7     -0.15; H4      0.14; H5  _1  0.14; H5  _2  0.14; H8      0.18; 
   3  Level shift: doubly occupied orbital energies shifted by -5.00D-02
 -----------------------------------------------------------------------------
      K-S energy, electrons, error :    -23.730740806668  32.0000005260    5.26D-07
@  4  -229.046168553       5.94D-01  -3.08D-02    13   3
      Virial theorem: -V/T =      2.007477
@    MULPOP   C1     -0.18; C2      0.36; O3     -0.27; O7     -0.36; H4      0.08; H5  _1  0.08; H5  _2  0.08; H8      0.22; 
   4  Level shift: doubly occupied orbital energies shifted by -5.00D-02
 -----------------------------------------------------------------------------
      K-S energy, electrons, error :    -23.757812586631  32.0000007737    7.74D-07
@  5  -229.060979132       1.83D-01  -1.48D-02    13   3
      Virial theorem: -V/T =      2.006478
@    MULPOP   C1     -0.28; C2      0.29; O3     -0.33; O7     -0.23; H4      0.12; H5  _1  0.11; H5  _2  0.11; H8      0.20; 
   5  Level shift: doubly occupied orbital energies shifted by -2.50D-02
 -----------------------------------------------------------------------------
      K-S energy, electrons, error :    -23.788994057219  32.0000006882    6.88D-07
@  6  -229.062272442       4.67D-02  -1.29D-03    13   3
      Virial theorem: -V/T =      2.005228
@    MULPOP   C1     -0.30; C2      0.30; O3     -0.31; O7     -0.27; H4      0.12; H5  _1  0.12; H5  _2  0.12; H8      0.22; 
   6  Level shift: doubly occupied orbital energies shifted by -1.25D-02
 -----------------------------------------------------------------------------
      K-S energy, electrons, error :    -23.776585839793  32.0000006992    6.99D-07
@  7  -229.062367878       8.77D-03  -9.54D-05    13   3
      Virial theorem: -V/T =      2.005714
@    MULPOP   C1     -0.28; C2      0.29; O3     -0.30; O7     -0.26; H4      0.12; H5  _1  0.11; H5  _2  0.11; H8      0.21; 
 -----------------------------------------------------------------------------
      K-S energy, electrons, error :    -23.777922385992  32.0000007001    7.00D-07
@  8  -229.062371590       1.70D-03  -3.71D-06    13   3
      Virial theorem: -V/T =      2.005666
@    MULPOP   C1     -0.29; C2      0.29; O3     -0.30; O7     -0.26; H4      0.12; H5  _1  0.11; H5  _2  0.11; H8      0.21; 
 -----------------------------------------------------------------------------
      K-S energy, electrons, error :    -23.778079596835  32.0000006999    7.00D-07
@  9  -229.062371733       6.18D-04  -1.43D-07    13   3
      Virial theorem: -V/T =      2.005659
@    MULPOP   C1     -0.29; C2      0.29; O3     -0.30; O7     -0.26; H4      0.12; H5  _1  0.11; H5  _2  0.11; H8      0.21; 
 -----------------------------------------------------------------------------
      K-S energy, electrons, error :    -23.778059889266  32.0000007000    7.00D-07
@ 10  -229.062371754       1.28D-04  -2.03D-08    13   3
      Virial theorem: -V/T =      2.005660
@    MULPOP   C1     -0.29; C2      0.29; O3     -0.30; O7     -0.26; H4      0.12; H5  _1  0.11; H5  _2  0.11; H8      0.21; 
 -----------------------------------------------------------------------------
      K-S energy, electrons, error :    -23.778056999073  32.0000007000    7.00D-07
@ 11  -229.062371754       9.94D-06  -7.89D-10    13   3

@ *** DIIS converged in  11 iterations !
@     Converged SCF energy, gradient:   -229.062371754415    9.94D-06
    - total time used in SIRFCK :             22.08 seconds


 *** SCF orbital energy analysis ***

 Only the 20 lowest virtual orbital energies printed in each symmetry.

 Number of electrons        :   32
 Closed shell orbitals      :   13    3

 Sym       Kohn-Sham orbital energies

1 A'    -19.17561694   -19.11808912   -10.30996818   -10.18728371    -1.11065250
         -1.02133750    -0.76302103    -0.61537418    -0.49519931    -0.48268994
         -0.41621335    -0.40051970    -0.28362457     0.03063737     0.05941222
          0.10606776     0.16178816     0.20006116     0.24289048     0.27354713
          0.33605648     0.37423089     0.39898059     0.43552484     0.45572758
          0.48004210     0.53079559     0.56284917     0.57373946     0.61249876
          0.70203050     0.73829108     0.82486371

2 A"     -0.47420639    -0.39731704    -0.32842143     0.00262840     0.11291932
          0.25613778     0.31619646     0.43675774     0.53754464     0.60457687
          0.72027863     0.73455262     0.78670264     0.87223513     0.98586137
          1.04916885     1.14180449     1.30243543     1.36327824     1.55092653
          1.72888134     1.91647552     1.97595681

    E(LUMO) :     0.00262840 au (symmetry 2)
  - E(HOMO) :    -0.28362457 au (symmetry 1)
  ------------------------------------------
    gap     :     0.28625297 au

 --- Writing SIRIFC interface file

--------------------------------------------------------------------------------


     .-----------------------------------------------.
     | DFT KT IPs [a.u. & eV] from Koopmans' theorem |
     `-----------------------------------------------'


     DFT KT symmetry 1 ( A' ) in point group Cs  -- 13 principal poles with pole strength 1

   ============  ============  ============  ============  ============
      19.175617     19.118089     10.309968     10.187284      1.110652
     521.795080    520.229668    280.548505    277.210091     30.222392
   ============  ============  ============  ============  ============

   ============  ============  ============  ============  ============
       1.021338      0.763021      0.615374      0.495199      0.482690
      27.792007     20.762858     16.745183     13.475059     13.134661
   ============  ============  ============  ============  ============

   ============  ============  ============
       0.416213      0.400520      0.283625
      11.325741     10.898695      7.717817
   ============  ============  ============

     DFT KT symmetry 2 ( A" ) in point group Cs  -- 3 principal poles with pole strength 1

   ============  ============  ============
       0.474206      0.397317      0.328421
      12.903812     10.811547      8.936802
   ============  ============  ============

@ Summary of DFT KT ionization potentials [eV]:

@ Symmetry 1 (A' ) :   521.795     520.230     280.549     277.210      30.222
@                       27.792      20.763      16.745      13.475      13.135
@                       11.326      10.899       7.718

@ Symmetry 2 (A" ) :    12.904      10.812       8.937

  === End of DFT KT output ===
--------------------------------------------------------------------------------


 CPU and wall time for SCF :      53.257      53.376


                       .-----------------------------------.
                       | --- Final results from SIRIUS --- |
                       `-----------------------------------'


@    Spin multiplicity:           1
@    Spatial symmetry:            1 ( irrep  A'  in Cs  )
@    Total charge of molecule:    0

@    Final DFT energy:           -229.062371754415                 
@    Nuclear repulsion:           121.191449977221
@    Electronic energy:          -350.253821731636

@    Final gradient norm:           0.000009938023

 
     Date and time (Linux)  : Thu May  7 17:38:56 2026
     Host name              : debian                                  

File label for MO orbitals:   7May26   FOCKDIIS

 (Only coefficients > 0.0100 are printed.)

 Molecular orbitals for symmetry species 1  (A' )
 ------------------------------------------------

    Orbital         4        5        6        7        8        9       10
   1 C1  :1s     1.0020   0.0042  -0.0018  -0.0286   0.0117  -0.0037   0.0031
   2 C1  :1s     0.0268  -0.0560   0.0163   0.6659  -0.3094   0.0716  -0.0862
   4 C1  :1s     0.0144   0.0297   0.0049  -0.1088   0.0090   0.0342  -0.0275
   5 C1  :2px   -0.0008   0.0371  -0.0101  -0.0801  -0.1971   0.2970  -0.3079
   6 C1  :2py   -0.0002  -0.0011   0.0204  -0.0080  -0.0493  -0.2643   0.0619
   7 C1  :2px    0.0062  -0.0132   0.0109   0.0048   0.0268  -0.0378   0.0311
   8 C1  :2py   -0.0007   0.0024  -0.0017   0.0010   0.0052   0.0274  -0.0106
   9 C1  :2px   -0.0002  -0.0175   0.0039   0.0268   0.0506  -0.0818   0.0388
  10 C1  :2py   -0.0003   0.0015  -0.0069   0.0027   0.0107   0.0277  -0.0331
  16 C1  :3d2+  -0.0019   0.0020  -0.0039   0.0053   0.0049  -0.0025   0.0114
  21 C2  :1s    -0.0013   0.0268  -0.0132  -0.0091  -0.0094   0.0080   0.0038
  22 C2  :1s    -0.0006  -0.4197   0.1846   0.3008   0.3784  -0.3752  -0.0779
  24 C2  :1s    -0.0057   0.1044  -0.0430  -0.0733  -0.0588   0.0847   0.0752
  25 C2  :2px    0.0013   0.1578  -0.0709   0.2903  -0.0859  -0.1906   0.4989
  26 C2  :2py    0.0001  -0.0003   0.3765  -0.1188  -0.3021  -0.3328   0.0435
  27 C2  :2px   -0.0019  -0.0295   0.0205  -0.0372   0.0172   0.0031  -0.0564
  28 C2  :2py   -0.0004   0.0098  -0.0774   0.0183   0.0351   0.0587   0.0020
  29 C2  :2px   -0.0042  -0.0533   0.0152  -0.0748   0.0412  -0.0174  -0.1246
  30 C2  :2py   -0.0010  -0.0015  -0.1175   0.0331   0.0826   0.1435  -0.0048
  31 C2  :3d2-   0.0001   0.0005  -0.0167   0.0001   0.0034   0.0009  -0.0020
  32 C2  :3d0    0.0002   0.0117  -0.0041  -0.0031  -0.0043   0.0021   0.0014
  34 C2  :3d2-   0.0001  -0.0018  -0.0125  -0.0036  -0.0007  -0.0152  -0.0067
  35 C2  :3d0    0.0003   0.0157  -0.0068  -0.0020  -0.0055  -0.0045  -0.0030
  36 C2  :3d2+  -0.0017   0.0075   0.0014   0.0032  -0.0097  -0.0175  -0.0157
  41 O3  :1s    -0.0000   0.0123  -0.0163   0.0017   0.0007  -0.0015  -0.0010
  42 O3  :1s    -0.0001  -0.4023   0.6520  -0.1722  -0.1267   0.3770   0.1933
  44 O3  :1s     0.0005   0.0524  -0.0505  -0.0049  -0.0194   0.0419   0.0361
  45 O3  :2px    0.0002  -0.0602   0.1100   0.0449  -0.0107  -0.3839   0.1297
  46 O3  :2py    0.0000   0.1380  -0.1659   0.0219  -0.0836   0.3297   0.3844
  47 O3  :2px   -0.0002   0.0056  -0.0044  -0.0025  -0.0005   0.0155  -0.0027
  48 O3  :2py   -0.0003  -0.0099   0.0069   0.0016   0.0063  -0.0181  -0.0195
  49 O3  :2px    0.0002   0.0193  -0.0263  -0.0050  -0.0006   0.0173  -0.0071
  50 O3  :2py    0.0001  -0.0375   0.0430  -0.0069   0.0049  -0.0053  -0.0130
  54 O3  :3d2-  -0.0001   0.0050  -0.0116  -0.0007  -0.0001   0.0174  -0.0010
  56 O3  :3d2+  -0.0001   0.0054  -0.0049   0.0040  -0.0044   0.0006   0.0167
  61 O7  :1s     0.0001   0.0149   0.0101   0.0018   0.0033   0.0007  -0.0013
  62 O7  :1s     0.0003  -0.6308  -0.5249  -0.1115  -0.0909   0.0938   0.2458
  64 O7  :1s    -0.0019   0.0602   0.0145   0.0106   0.0089   0.0315   0.0829
  65 O7  :2px    0.0001   0.0291   0.0408   0.1932   0.5525   0.2935   0.1950
  66 O7  :2py    0.0000  -0.1451  -0.0632   0.0396   0.2931   0.0081  -0.5168
  67 O7  :2px   -0.0002  -0.0009  -0.0064  -0.0109  -0.0286  -0.0125  -0.0099
  68 O7  :2py   -0.0000   0.0040  -0.0065  -0.0029  -0.0097   0.0052   0.0215
  69 O7  :2px   -0.0010  -0.0094  -0.0150  -0.0366  -0.0786  -0.0110  -0.0220
  70 O7  :2py   -0.0003   0.0375   0.0105  -0.0008  -0.0264  -0.0110   0.0106
  74 O7  :3d2-  -0.0002  -0.0022  -0.0061   0.0067   0.0150   0.0081   0.0078
  76 O7  :3d2+  -0.0005   0.0029   0.0009   0.0014  -0.0139  -0.0054   0.0189
  81 H4  :1s     0.0004  -0.0142   0.0160   0.2722  -0.2704  -0.0475  -0.1298
  82 H4  :1s    -0.0112   0.0036  -0.0110  -0.0738   0.0631   0.0148   0.0419
  83 H4  :1s    -0.0027   0.0059  -0.0058  -0.1009   0.0840   0.0325   0.0613
  91 H5  :1s     0.0008  -0.0135  -0.0000   0.2886  -0.1919   0.2633  -0.1694
  92 H5  :1s    -0.0119   0.0062  -0.0038  -0.0769   0.0459  -0.0521   0.0303
  93 H5  :1s    -0.0034   0.0040  -0.0016  -0.1030   0.0615  -0.0698   0.0497
 105 H8  :1s     0.0004  -0.2765  -0.2382  -0.2034  -0.5125  -0.2410  -0.1579
 106 H8  :1s    -0.0002   0.0833   0.0704   0.0389   0.0930   0.0497   0.0090
 107 H8  :1s    -0.0007   0.1015   0.0841   0.0684   0.1521   0.0716   0.0604
 108 H8  :2px    0.0000  -0.0099  -0.0085  -0.0059  -0.0116  -0.0046  -0.0042
 110 H8  :2px    0.0002  -0.0113  -0.0096  -0.0109  -0.0199  -0.0023  -0.0089
 111 H8  :2py    0.0000   0.0006   0.0017   0.0026   0.0109   0.0039  -0.0118

    Orbital        11       12       13       14       15       16       17
   1 C1  :1s    -0.0003  -0.0010  -0.0003  -0.0089  -0.0078  -0.0011   0.0225
   2 C1  :1s     0.0091  -0.0473  -0.1085  -0.3597  -0.3158  -0.0596  -0.0572
   3 C1  :1s     0.0002   0.0021   0.0015   0.0036   0.0006  -0.0005   0.0277
   4 C1  :1s     0.0275  -0.0376  -0.1122  -2.1543  -1.9518  -0.5468  -3.2603
   5 C1  :2px    0.1888   0.3648   0.2698  -0.0205  -0.2237  -0.1605   0.1769
   6 C1  :2py    0.6586   0.0129  -0.1344   0.0278   0.1021  -0.4960  -0.0203
   7 C1  :2px   -0.0231  -0.0200  -0.0099  -0.0769  -0.0512  -0.0128   0.0344
   8 C1  :2py   -0.0714  -0.0104   0.0139   0.0230   0.0422  -0.1272   0.0012
   9 C1  :2px   -0.0397  -0.0446  -0.0080  -0.0507  -0.2962  -0.1807   2.9942
  10 C1  :2py   -0.0995  -0.0006  -0.0040   0.0456   0.4080  -1.4609  -0.2997
  12 C1  :3d0   -0.0082   0.0042   0.0040  -0.0038   0.0025  -0.0067  -0.0224
  13 C1  :3d2+  -0.0056  -0.0088  -0.0050   0.0023   0.0018  -0.0030   0.0402
  14 C1  :3d2-   0.0048   0.0033  -0.0010  -0.0057  -0.0056  -0.0382   0.0462
  15 C1  :3d0   -0.0063   0.0098   0.0030  -0.0157  -0.0160   0.0607   0.0729
  16 C1  :3d2+  -0.0041  -0.0159  -0.0081   0.0352   0.0156   0.0116  -0.1238
  18 C1  :4f1-  -0.0001  -0.0006  -0.0001   0.0131   0.0087   0.0004   0.0098
  19 C1  :4f1+   0.0001  -0.0019  -0.0013  -0.0036  -0.0070  -0.0003  -0.0178
  20 C1  :4f3+   0.0006   0.0041   0.0029   0.0084   0.0064   0.0035   0.0180
  22 C2  :1s    -0.0848  -0.0795  -0.0673   0.0673   0.0073   0.0111   0.4458
  23 C2  :1s    -0.0019   0.0010   0.0009  -0.0073  -0.0154   0.0015  -0.0096
  24 C2  :1s     0.0148   0.0158   0.0380   0.4109   0.6234  -0.0464   3.5925
  25 C2  :2px   -0.0721  -0.3428  -0.1079  -0.0065   0.0280  -0.0318   0.3219
  26 C2  :2py   -0.1571   0.3423   0.0115  -0.0811   0.0590  -0.0770  -0.1253
  27 C2  :2px   -0.0011   0.0457   0.0134  -0.0241  -0.0001   0.0401   0.2963
  28 C2  :2py    0.0331  -0.0773   0.0133   0.0566   0.0042  -0.0179  -0.0659
  29 C2  :2px   -0.0217   0.1160   0.0863   0.3250  -0.2894   0.1533   2.2160
  30 C2  :2py    0.0535  -0.1987   0.0456   0.2313  -0.2328   0.1574  -0.2392
  31 C2  :3d2-   0.0135  -0.0097   0.0185  -0.0033   0.0060  -0.0136   0.0002
  32 C2  :3d0   -0.0004  -0.0012  -0.0019   0.0063   0.0060  -0.0030   0.0127
  33 C2  :3d2+  -0.0023  -0.0159  -0.0268  -0.0055   0.0089  -0.0005   0.0076
  34 C2  :3d2-   0.0188   0.0097   0.0185  -0.0307  -0.0059  -0.0105   0.0015
  35 C2  :3d0   -0.0037  -0.0050  -0.0049   0.0109  -0.0354  -0.0149  -0.0651
  36 C2  :3d2+  -0.0073  -0.0146  -0.0314  -0.0177  -0.0197   0.0143   0.0992
  39 C2  :4f1+   0.0007   0.0013  -0.0001   0.0005   0.0057  -0.0040  -0.0124
  42 O3  :1s     0.0624  -0.1377   0.0136  -0.0779  -0.0226   0.0253   0.0189
  44 O3  :1s     0.0134  -0.0029  -0.0220  -0.2697  -0.1849   0.0543   0.2488
  45 O3  :2px   -0.1041   0.2478   0.7557   0.0686  -0.1553   0.0111  -0.1141
  46 O3  :2py    0.1824  -0.4524   0.4185   0.0365  -0.0199  -0.0911   0.0665
  47 O3  :2px    0.0047  -0.0122  -0.0293  -0.0053  -0.0086   0.0050   0.0441
  48 O3  :2py   -0.0077   0.0177  -0.0106   0.0145   0.0140  -0.0072  -0.0177
  49 O3  :2px    0.0066   0.0055   0.0281  -0.0794  -0.0330   0.0063  -0.2214
  50 O3  :2py   -0.0027   0.0111   0.0269   0.0679   0.0683  -0.0497  -0.1364
  54 O3  :3d2-   0.0064  -0.0153  -0.0091   0.0138   0.0037   0.0018  -0.0179
  56 O3  :3d2+   0.0048  -0.0096   0.0155   0.0055   0.0003  -0.0085  -0.0241
  62 O7  :1s     0.0646   0.2434   0.0513  -0.2533   0.1353  -0.0346  -0.0401
  64 O7  :1s     0.0044   0.0640   0.0779  -0.5028   0.1656   0.2046  -0.0762
  65 O7  :2px    0.1654   0.3675   0.0090   0.2378  -0.2871  -0.0938  -0.0904
  66 O7  :2py    0.1512  -0.4379   0.3704  -0.0479   0.0218  -0.0414  -0.0971
  67 O7  :2px   -0.0067  -0.0214  -0.0027   0.0103  -0.0080  -0.0057   0.0096
  68 O7  :2py   -0.0023   0.0135  -0.0045  -0.0107   0.0089   0.0031  -0.0101
  69 O7  :2px   -0.0040  -0.0502  -0.0211   0.2919  -0.2788  -0.1544  -0.1204
  70 O7  :2py   -0.0134  -0.0278   0.0233   0.0146  -0.1165   0.0338   0.0393
  74 O7  :3d2-   0.0038   0.0008  -0.0011   0.0152  -0.0191  -0.0020   0.0213
  75 O7  :3d0    0.0006   0.0092  -0.0043   0.0082   0.0034  -0.0149  -0.0111
  76 O7  :3d2+  -0.0102   0.0058  -0.0054  -0.0129   0.0084   0.0159  -0.0004
  81 H4  :1s     0.7324   0.1611  -0.0512   0.0420  -0.0473   0.1466  -0.1379
  82 H4  :1s    -0.1232  -0.0214   0.0062   0.1775   0.0610   0.2372   0.0019
  83 H4  :1s    -0.1634  -0.0313   0.0583   0.6152   0.5071   2.5998  -0.1899
  84 H4  :2px   -0.0068   0.0012   0.0027   0.0002   0.0003   0.0122   0.0166
  85 H4  :2py   -0.0117  -0.0042   0.0005   0.0067   0.0098   0.0198  -0.0068
  86 H4  :2px   -0.0041   0.0024   0.0006  -0.0140  -0.0188  -0.0670  -0.0217
  87 H4  :2py   -0.0103  -0.0048   0.0012  -0.0732  -0.0515  -0.1224  -0.0352
  91 H5  :1s    -0.3034   0.0979   0.1181  -0.0233   0.0458  -0.0578  -0.1498
  92 H5  :1s     0.0477  -0.0300  -0.0092   0.1990   0.1755  -0.0973   0.0494
  93 H5  :1s     0.0693  -0.0117  -0.0124   0.7920   1.1160  -0.9677  -0.2076
  94 H5  :2px    0.0037   0.0019   0.0015   0.0026   0.0007  -0.0059   0.0179
  96 H5  :2pz    0.0062  -0.0016  -0.0023   0.0072   0.0116  -0.0105  -0.0055
  97 H5  :2px    0.0055   0.0114   0.0065  -0.0352  -0.0195   0.0236  -0.0258
  98 H5  :2py    0.0069  -0.0017   0.0000   0.0426   0.0435  -0.0043   0.0325
  99 H5  :2pz    0.0081  -0.0001  -0.0043  -0.0761  -0.0740   0.0502  -0.0346
 105 H8  :1s    -0.1313  -0.3689   0.0122   0.2140  -0.1851   0.0487   0.0009
 106 H8  :1s     0.0268   0.0349  -0.0291   0.1249  -0.0754  -0.0879  -0.0050
 107 H8  :1s     0.0222   0.0862  -0.0691   1.0860  -1.0477  -0.2261   0.2637
 108 H8  :2px   -0.0011  -0.0075   0.0029  -0.0165   0.0147   0.0018  -0.0004
 110 H8  :2px    0.0012  -0.0126  -0.0090   0.0817  -0.0438  -0.0607  -0.0022
 111 H8  :2py    0.0030  -0.0033   0.0036  -0.0171   0.0144   0.0171  -0.0096

    Orbital        18       19       20       21       22       23
   1 C1  :1s     0.0048  -0.0047   0.0003  -0.0082  -0.0160   0.0176
   2 C1  :1s     0.0519  -0.0219   0.0248   0.0474  -0.3117   0.4345
   3 C1  :1s     0.0080   0.0098   0.0108   0.0280  -0.0468   0.0391
   4 C1  :1s    -0.7396  -0.6593  -1.1853  -3.1724   2.0332  -0.8867
   5 C1  :2px   -0.3356   0.0748  -0.1552  -0.1140   0.2948  -0.7041
   6 C1  :2py    0.1826  -0.0166  -0.1811   0.1527  -0.0700  -0.1783
   7 C1  :2px   -0.0375   0.0924   0.1595   0.0595   0.1395   0.0160
   8 C1  :2py   -0.1590   0.0148   0.5567  -0.2617   0.2640   0.4024
   9 C1  :2px    0.1118  -0.0942   0.4995   0.7420  -1.1716   1.7221
  10 C1  :2py   -0.4671   0.9553   2.5191  -1.9034   0.1808   1.2274
  11 C1  :3d2-  -0.0030   0.0284   0.0102  -0.0224   0.0067   0.0213
  12 C1  :3d0   -0.0035   0.0040   0.0186   0.0028  -0.0002  -0.0146
  13 C1  :3d2+  -0.0005  -0.0053   0.0039  -0.0098  -0.0142   0.0026
  14 C1  :3d2-   0.0642   0.0687   0.2511  -0.0699   0.1996   0.3179
  15 C1  :3d0    0.0734  -0.0531  -0.3490   0.2110  -0.2140  -0.1303
  16 C1  :3d2+  -0.0290  -0.0045  -0.2306   0.0430  -0.0022  -0.3123
  17 C1  :4f3-  -0.0051  -0.0079  -0.0130   0.0076  -0.0027  -0.0146
  18 C1  :4f1-   0.0020   0.0045   0.0100   0.0113  -0.0160   0.0132
  19 C1  :4f1+   0.0016  -0.0022  -0.0345   0.0068   0.0097  -0.0322
  20 C1  :4f3+   0.0180  -0.0036  -0.0254   0.0249  -0.0281   0.0108
  21 C2  :1s    -0.0184  -0.0274  -0.0128   0.0315   0.0211   0.0352
  22 C2  :1s    -0.3028   0.1103  -0.1205   0.3259   0.4735  -0.1280
  23 C2  :1s     0.0333  -0.0045   0.0231   0.0206   0.0868  -0.0349
  24 C2  :1s    -2.7788   0.8954  -0.8970   0.7533  -3.2253   1.5601
  25 C2  :2px    0.0676  -0.2991  -0.1144  -0.4444  -0.1004  -0.6606
  26 C2  :2py    0.1198  -0.3627  -0.0497  -0.1794  -0.5629  -0.3980
  27 C2  :2px    0.3457  -0.0850   0.1172  -0.0167   0.0214   0.2787
  28 C2  :2py   -0.3413  -0.3747  -0.0149  -0.1164   0.1295   0.2300
  29 C2  :2px    1.1855   0.2295   1.5938   3.0190   0.1668  -0.0636
  30 C2  :2py   -0.4682  -2.3694  -0.8903   1.4847   1.9072   1.0018
  31 C2  :3d2-  -0.0046  -0.0080   0.0174   0.0177  -0.0060  -0.0230
  32 C2  :3d0   -0.0218   0.0161  -0.0161   0.0051   0.0141  -0.0160
  33 C2  :3d2+   0.0013  -0.0001  -0.0062   0.0037  -0.0206   0.0233
  34 C2  :3d2-   0.2840   0.1703  -0.1709   0.0523  -0.3210  -0.3806
  35 C2  :3d0    0.0643   0.0203   0.1383   0.0375   0.2596  -0.1659
  36 C2  :3d2+   0.1885   0.0318   0.1689   0.3202   0.1639   0.2180
  37 C2  :4f3-  -0.0025  -0.0036   0.0017   0.0022   0.0130  -0.0132
  38 C2  :4f1-   0.0178   0.0203  -0.0022  -0.0045  -0.0217  -0.0229
  39 C2  :4f1+  -0.0170  -0.0033   0.0008  -0.0266  -0.0030  -0.0067
  40 C2  :4f3+  -0.0297   0.0077  -0.0036  -0.0159  -0.0491   0.0073
  41 O3  :1s    -0.0209  -0.0229  -0.0247   0.0073  -0.0007   0.0175
  42 O3  :1s     0.2541   0.0887   0.0642  -0.0604  -0.0142   0.0502
  44 O3  :1s     2.1261   1.3626   1.1452   0.1761   0.0116  -1.1463
  45 O3  :2px    0.0047   0.1299  -0.0887  -0.1810  -0.0809   0.3587
  46 O3  :2py   -0.1177   0.2112  -0.0481   0.0535  -0.0576  -0.0816
  47 O3  :2px    0.0856   0.0133   0.0662   0.0447   0.0405  -0.0111
  48 O3  :2py   -0.1376  -0.0823  -0.0080  -0.0520   0.0080   0.0625
  49 O3  :2px    0.2975   0.3694  -0.0080  -0.1273   0.0528  -0.0527
  50 O3  :2py   -0.8140  -0.1554  -0.2562  -0.1115  -0.1986   0.4050
  54 O3  :3d2-  -0.0684  -0.0393  -0.0138  -0.0254  -0.0184   0.0435
  55 O3  :3d0   -0.0651  -0.0077  -0.0126  -0.0123  -0.0143   0.0213
  56 O3  :3d2+  -0.0507  -0.0311   0.0075  -0.0136   0.0031  -0.0011
  61 O7  :1s    -0.0167   0.0267   0.0123  -0.0217  -0.0437  -0.0155
  62 O7  :1s     0.0329  -0.2364   0.1448  -0.0235  -0.2855  -0.0621
  63 O7  :1s     0.0066  -0.0119  -0.0065  -0.0029  -0.0129  -0.0003
  64 O7  :1s     0.5373  -1.5901   0.4483   1.1298   2.3200   0.3391
  65 O7  :2px    0.1372  -0.3245   0.1026  -0.2872   0.0794  -0.0283
  66 O7  :2py    0.2933  -0.1531   0.0405   0.0070  -0.4458  -0.2764
  67 O7  :2px   -0.0050   0.0279   0.0454  -0.0141  -0.0215   0.0304
  68 O7  :2py   -0.0244  -0.0366   0.0340   0.0694   0.1003   0.0443
  69 O7  :2px    0.2417  -0.5671  -0.0836  -0.2666   0.0963   0.6008
  70 O7  :2py    0.3169  -0.6616   0.4171   0.1639   0.8044   0.1843
  71 O7  :3d2-  -0.0054   0.0102   0.0043   0.0072   0.0056  -0.0043
  73 O7  :3d2+   0.0028  -0.0069  -0.0014  -0.0148   0.0099  -0.0007
  74 O7  :3d2-   0.0186  -0.0335   0.0263   0.0367   0.0723   0.0602
  75 O7  :3d0   -0.0287   0.0387  -0.0283  -0.0348  -0.1264  -0.0294
  76 O7  :3d2+   0.0364   0.0343  -0.0191   0.0071   0.0187  -0.0670
  80 O7  :4f3+  -0.0028   0.0047  -0.0021  -0.0113  -0.0117  -0.0007
  81 H4  :1s     0.1171   0.2861  -0.1863  -0.1183   0.2054   0.1433
  82 H4  :1s     0.3996   0.0124  -1.5617   0.9617  -0.4809  -0.6707
  83 H4  :1s     0.0381  -0.5904  -0.5777   0.8378  -0.8339  -1.5968
  85 H4  :2py   -0.0120  -0.0040   0.0334  -0.0135   0.0040  -0.0007
  86 H4  :2px   -0.1011   0.0901   0.2601  -0.2429   0.1610   0.1148
  87 H4  :2py   -0.0420   0.0270   0.2756  -0.1690   0.3148   0.2548
  88 H4  :3d2-   0.0104  -0.0034  -0.0228   0.0181  -0.0140  -0.0118
  89 H4  :3d0   -0.0097   0.0028   0.0232  -0.0105   0.0156   0.0079
  90 H4  :3d2+  -0.0017  -0.0010   0.0077  -0.0050   0.0128   0.0055
  91 H5  :1s    -0.0251  -0.1024   0.1223   0.0526   0.0594  -0.2175
  92 H5  :1s    -0.1756   0.1336   0.8563  -0.0751  -0.0363   0.2731
  93 H5  :1s     0.3303   0.2949   0.3592  -0.3622   0.2716   0.7714
  95 H5  :2py   -0.0050   0.0027   0.0167  -0.0063  -0.0022   0.0056
  97 H5  :2px    0.0142  -0.0231  -0.0816   0.0742   0.0436  -0.1728
  98 H5  :2py   -0.0333   0.0044   0.1769  -0.0345  -0.0046   0.1135
  99 H5  :2pz   -0.0014  -0.0218  -0.0692  -0.0079   0.0218  -0.2036
 100 H5  :3d2-   0.0010  -0.0005  -0.0129   0.0010  -0.0031  -0.0070
 101 H5  :3d1-   0.0008   0.0006  -0.0146   0.0042   0.0037  -0.0152
 105 H8  :1s     0.1724  -0.0172  -0.0827  -0.4535   0.4621  -0.1123
 106 H8  :1s     0.1411  -0.0549  -0.2310  -0.8035   0.0527   0.3259
 107 H8  :1s     0.4584  -0.4060   0.7737   1.6659  -0.5995   0.1021
 108 H8  :2px   -0.0031  -0.0014  -0.0058  -0.0316   0.0045   0.0063
 110 H8  :2px   -0.0363   0.0634  -0.0025   0.0641  -0.4455   0.0976
 111 H8  :2py    0.0462  -0.0272  -0.0262  -0.0262  -0.0480  -0.0240
 112 H8  :3d2-   0.0070  -0.0024  -0.0005   0.0107   0.0073  -0.0042
 114 H8  :3d2+  -0.0013   0.0035   0.0013  -0.0120  -0.0281   0.0066

 Molecular orbitals for symmetry species 2  (A" )
 ------------------------------------------------

    Orbital         1        2        3        4        5        6        7
   1 C1  :2pz    0.4382   0.5648   0.0454   0.0381  -0.5459  -0.1830   0.1695
   2 C1  :2pz   -0.0516  -0.0581  -0.0183   0.0235  -0.1043   0.5857  -0.1665
   3 C1  :2pz   -0.0853  -0.0583  -0.0530   0.2519  -1.3985   2.4186  -1.4234
   4 C1  :3d1-  -0.0063  -0.0106  -0.0023   0.0100  -0.0053   0.0118  -0.0064
   5 C1  :3d1+  -0.0012   0.0075   0.0016  -0.0162  -0.0039   0.0083  -0.0192
   6 C1  :3d1-  -0.0013  -0.0133   0.0053   0.0009   0.0657  -0.4432   0.1781
   7 C1  :3d1+  -0.0110   0.0054   0.0045  -0.0439  -0.0349   0.2236   0.1180
   8 C1  :4f2-  -0.0003   0.0002   0.0014  -0.0013   0.0002  -0.0420   0.0056
   9 C1  :4f0   -0.0021   0.0001   0.0002  -0.0043  -0.0011   0.0115  -0.0032
  10 C1  :4f2+   0.0028  -0.0001  -0.0001   0.0054   0.0016  -0.0283   0.0065
  11 C2  :2pz    0.4914  -0.2602  -0.2146   0.8362   0.2203  -0.3071  -0.5493
  12 C2  :2pz   -0.0309   0.0234   0.0181   0.0144  -0.0083  -0.1309  -0.3622
  13 C2  :2pz   -0.0716   0.0062   0.0313   0.1205   0.4026  -0.1345   2.0652
  14 C2  :3d1-   0.0000  -0.0002  -0.0245  -0.0086  -0.0040  -0.0066   0.0026
  15 C2  :3d1+  -0.0030   0.0134   0.0027   0.0134  -0.0083   0.0166  -0.0063
  16 C2  :3d1-  -0.0040  -0.0005  -0.0410  -0.0141   0.0016   0.1285  -0.0638
  17 C2  :3d1+  -0.0043   0.0263   0.0084   0.0133   0.0121  -0.0546   0.1377
  18 C2  :4f2-  -0.0012  -0.0011   0.0066   0.0012  -0.0047   0.0125  -0.0057
  20 C2  :4f2+  -0.0012   0.0045  -0.0001   0.0020  -0.0015  -0.0002   0.0168
  21 O3  :2pz    0.3383  -0.2986  -0.6614  -0.5727  -0.1337  -0.0158  -0.1385
  22 O3  :2pz   -0.0103   0.0094   0.0231   0.0270   0.0130  -0.0409   0.0199
  23 O3  :2pz   -0.0206   0.0112  -0.0169  -0.1786  -0.1097   0.0596  -0.1299
  26 O3  :3d1-  -0.0134   0.0098   0.0170  -0.0034  -0.0018   0.0269  -0.0019
  27 O3  :3d1+   0.0072  -0.0041  -0.0103   0.0066  -0.0033  -0.0003  -0.0141
  31 O7  :2pz    0.4053  -0.4559   0.6847  -0.3373  -0.1909   0.0588  -0.2026
  32 O7  :2pz   -0.0116   0.0137  -0.0249   0.0191   0.0074   0.0204  -0.0312
  33 O7  :2pz   -0.0100  -0.0019   0.0442  -0.0997  -0.0560  -0.0093  -0.1139
  36 O7  :3d1-   0.0143  -0.0127   0.0109   0.0129   0.0048  -0.0050  -0.0160
  37 O7  :3d1+   0.0029   0.0017  -0.0038   0.0127   0.0090  -0.0007  -0.0098
  41 H4  :2pz    0.0032   0.0046  -0.0002   0.0030  -0.0118   0.0130  -0.0058
  42 H4  :2pz    0.0087   0.0098   0.0004  -0.0101   0.0175   0.0896  -0.0437
  44 H4  :3d1+  -0.0009  -0.0007   0.0003  -0.0012   0.0019  -0.0109  -0.0010
  45 H5  :1s     0.3498   0.5120   0.0621  -0.2388   0.0389  -0.2117  -0.0298
  46 H5  :1s    -0.0526  -0.0875   0.0114  -0.0264   0.1248  -1.4452   0.4781
  47 H5  :1s    -0.0840  -0.1185   0.0319  -0.3681   2.0696  -0.5138   0.1024
  49 H5  :2py    0.0049   0.0066   0.0004   0.0015  -0.0151  -0.0089   0.0023
  50 H5  :2pz   -0.0045  -0.0059  -0.0009  -0.0003   0.0118   0.0277  -0.0121
  51 H5  :2px   -0.0060  -0.0018  -0.0069  -0.0079  -0.0461   0.1700  -0.1586
  52 H5  :2py    0.0084   0.0078   0.0039  -0.0063   0.0616  -0.1399   0.0280
  53 H5  :2pz   -0.0037  -0.0003  -0.0048   0.0091  -0.0695   0.2704  -0.0347
  55 H5  :3d1-  -0.0016  -0.0020  -0.0007   0.0013  -0.0047   0.0249  -0.0019
  56 H5  :3d0   -0.0002   0.0002   0.0003  -0.0012   0.0029  -0.0127   0.0010
  57 H5  :3d1+   0.0012   0.0010   0.0003  -0.0006   0.0029  -0.0154   0.0077
  60 H8  :2pz    0.0131  -0.0165   0.0188  -0.0271  -0.0155   0.0117   0.0880

    Orbital         8        9       10       11       12       13
   1 C1  :2pz   -0.8704  -0.2041  -0.1531   0.1401   0.0177  -0.0912
   2 C1  :2pz    0.7413   0.1091   0.1083   0.1676   0.0045  -0.2013
   3 C1  :2pz    3.0249   1.3163   0.9851  -0.6179  -0.3223  -0.9035
   4 C1  :3d1-  -0.0412  -0.0076   0.0093   0.0091  -0.0099   0.0001
   5 C1  :3d1+   0.0327  -0.0225   0.0017   0.0141   0.0027   0.0030
   6 C1  :3d1-  -0.6763  -0.2423  -0.2706  -0.2763   0.2409   0.4768
   7 C1  :3d1+   0.3359   0.1219   0.0560   0.2519  -0.3079  -0.0696
   8 C1  :4f2-  -0.0295  -0.0186  -0.0108  -0.0165   0.0134   0.0357
   9 C1  :4f0    0.0076   0.0028   0.0013  -0.0047  -0.0243   0.0184
  10 C1  :4f2+  -0.0235  -0.0063   0.0018  -0.0097   0.0047  -0.0052
  11 C2  :2pz    0.1215  -0.2225   0.0443  -0.1714  -0.2026   0.0026
  12 C2  :2pz   -0.0796   0.0642   0.0564   0.0647   0.1417  -0.0846
  13 C2  :2pz   -0.1042  -0.3715  -0.4499   1.2619   1.0245   0.6725
  14 C2  :3d1-   0.0013  -0.0001  -0.0098  -0.0043   0.0107   0.0034
  15 C2  :3d1+  -0.0019   0.0005  -0.0011  -0.0140   0.0183  -0.0075
  16 C2  :3d1-  -0.0299  -0.1396   0.4667  -0.0288   0.3125   0.8310
  17 C2  :3d1+  -0.2101   0.4207  -0.0550  -0.3794  -0.3883   0.4690
  18 C2  :4f2-   0.0189  -0.0143  -0.0490  -0.0183  -0.0073  -0.0133
  19 C2  :4f0    0.0059  -0.0032  -0.0019  -0.0191  -0.0238   0.0033
  20 C2  :4f2+  -0.0058  -0.0043  -0.0004  -0.0177  -0.0244  -0.0175
  21 O3  :2pz   -0.1369   0.2494   0.3422   0.3422   0.2976  -0.0387
  22 O3  :2pz   -0.0261   0.0947   0.1377   0.2205   0.1686   0.0058
  23 O3  :2pz    0.0397  -0.0360  -0.9069  -1.2564  -1.2913  -0.5195
  24 O3  :3d1-  -0.0014   0.0061  -0.0125  -0.0127  -0.0162  -0.0086
  26 O3  :3d1-  -0.0068   0.0106   0.0402   0.0118   0.0429   0.0575
  27 O3  :3d1+   0.0075   0.0277  -0.0426  -0.0495  -0.0141   0.0852
  31 O7  :2pz    0.0105   0.1468  -0.5402   0.0842   0.3257   0.2032
  32 O7  :2pz    0.0249   0.0331  -0.2972   0.0978   0.1953   0.0752
  33 O7  :2pz   -0.1939   0.2241   1.3826  -0.2450  -1.3126   0.3826
  34 O7  :3d1-   0.0044  -0.0046  -0.0136   0.0056   0.0082  -0.0174
  35 O7  :3d1+   0.0008   0.0086  -0.0067   0.0159  -0.0159   0.0003
  36 O7  :3d1-   0.0027  -0.0216   0.0176   0.0166   0.0061  -0.0262
  37 O7  :3d1+  -0.0037   0.0267   0.0034   0.0063  -0.0148  -0.0231
  41 H4  :2pz    0.0100   0.0202  -0.0008  -0.0033   0.0167   0.0000
  42 H4  :2pz   -0.1275  -0.2857   0.0839   0.1537  -0.3199  -0.1027
  43 H4  :3d1-   0.0086   0.0122  -0.0072  -0.0142   0.0123   0.0149
  44 H4  :3d1+  -0.0024  -0.0103  -0.0065   0.0028   0.0070  -0.0011
  45 H5  :1s     0.5104  -0.0230   0.0042   0.0084   0.0329   0.1083
  46 H5  :1s    -0.8767  -0.3975  -0.2523  -0.2739   0.2135   0.6708
  47 H5  :1s    -2.6583  -0.6970  -0.6402   0.1556   0.0954   0.0682
  48 H5  :2px   -0.0056   0.0234   0.0105  -0.0007   0.0010  -0.0157
  49 H5  :2py    0.0037   0.0094  -0.0015  -0.0147  -0.0026   0.0134
  50 H5  :2pz    0.0035   0.0036   0.0046   0.0075  -0.0161  -0.0060
  51 H5  :2px    0.2951  -0.3501  -0.0426   0.1289  -0.0859   0.2582
  52 H5  :2py   -0.4089  -0.2529  -0.0533   0.1732   0.0953  -0.0922
  53 H5  :2pz    0.5038   0.1568   0.0885   0.0415   0.1084  -0.1945
  54 H5  :3d2-   0.0118  -0.0082   0.0006  -0.0010  -0.0049   0.0030
  55 H5  :3d1-   0.0329   0.0093   0.0021  -0.0006   0.0019  -0.0050
  56 H5  :3d0   -0.0142  -0.0057  -0.0039  -0.0070   0.0031   0.0130
  57 H5  :3d1+  -0.0204   0.0007  -0.0003  -0.0007  -0.0072  -0.0020
  58 H5  :3d2+   0.0034   0.0128  -0.0012  -0.0062  -0.0054   0.0022
  59 H8  :2pz   -0.0043   0.0343  -0.0083   0.0387  -0.0314   0.0280
  60 H8  :2pz    0.0485  -0.4767   0.1356  -0.6974   0.6501  -0.4476
  61 H8  :3d1-   0.0028  -0.0055  -0.0085   0.0096  -0.0014  -0.0159
  62 H8  :3d1+   0.0034  -0.0151  -0.0122  -0.0153   0.0307  -0.0186

  Total CPU  time used in SIRIUS :  53.45 seconds
  Total wall time used in SIRIUS :  53.57 seconds

 
     Date and time (Linux)  : Thu May  7 17:38:56 2026
     Host name              : debian                                  


                     .---------------------------------------.
                     | End of Wave Function Section (SIRIUS) |
                     `---------------------------------------'

  Total CPU  time used in DALTON:  53.69 seconds
  Total wall time used in DALTON:  53.81 seconds

 
     Date and time (Linux)  : Thu May  7 17:38:56 2026
     Host name              : debian                                  
