

     ************************************************************************
     *************** Dalton - An Electronic Structure Program ***************
     ************************************************************************

    This is output from DALTON release Dalton2025.0-dev (2025)
         ( Web site: http://daltonprogram.org )

   ----------------------------------------------------------------------------

    NOTE:
     
    Dalton is an experimental code for the evaluation of molecular
    properties using (MC)SCF, DFT, CI, and CC wave functions.
    The authors accept no responsibility for the performance of
    the code or for the correctness of the results.
     
    The code (in whole or part) is provided under a licence and
    is not to be reproduced for further distribution without
    the written permission of the authors or their representatives.
     
    See the home page "http://daltonprogram.org" for further information.
     
    If results obtained with this code are published,
    the appropriate citations would be both of:
     
       K. Aidas, C. Angeli, K. L. Bak, V. Bakken,
       R. Bast, L. Boman, O. Christiansen, R. Cimiraglia,
       S. Coriani, P. Dahle, E. K. Dalskov, U. Ekstroem,
       T. Enevoldsen, J. J. Eriksen, P. Ettenhuber, B. Fernandez,
       L. Ferrighi, H. Fliegl, L. Frediani, K. Hald, A. Halkier,
       C. Haettig, H. Heiberg, T. Helgaker, A. C. Hennum,
       H. Hettema, E. Hjertenaes, S. Hoest, I.-M. Hoeyvik,
       M. F. Iozzi, B. Jansik, H. J. Aa. Jensen, D. Jonsson,
       P. Joergensen, J. Kauczor, S. Kirpekar,
       T. Kjaergaard, W. Klopper, S. Knecht, R. Kobayashi, H. Koch,
       J. Kongsted, A. Krapp, K. Kristensen, A. Ligabue,
       O. B. Lutnaes, J. I. Melo, K. V. Mikkelsen, R. H. Myhre,
       C. Neiss, C. B. Nielsen, P. Norman, J. Olsen,
       J. M. H. Olsen, A. Osted, M. J. Packer, F. Pawlowski,
       T. B. Pedersen, P. F. Provasi, S. Reine, Z. Rinkevicius,
       T. A. Ruden, K. Ruud, V. Rybkin, P. Salek, C. C. M. Samson,
       A. Sanchez de Meras, T. Saue, S. P. A. Sauer,
       B. Schimmelpfennig, K. Sneskov, A. H. Steindal,
       K. O. Sylvester-Hvid, P. R. Taylor, A. M. Teale,
       E. I. Tellgren, D. P. Tew, A. J. Thorvaldsen, L. Thoegersen,
       O. Vahtras, M. A. Watson, D. J. D. Wilson, M. Ziolkowski
       and H. Agren,
       "The Dalton quantum chemistry program system",
       WIREs Comput. Mol. Sci. 2014, 4:269-284 (doi: 10.1002/wcms.1172)
     
    and
     
       Dalton, a molecular electronic structure program,
       Release Dalton2025.0-dev (2025), see http://daltonprogram.org
   ----------------------------------------------------------------------------

    Authors in alphabetical order (Major contribution(s) in parenthesis):

  Kestutis Aidas,              Vilnius University,        Lithuania   (QM/MM)
  Celestino Angeli,            University of Ferrara,     Italy       (NEVPT2)
  Juan J. Aucar,               Northeast National UniversiArgentina   (LRESC, Relativistic Effects on NMR Shieldings and EFG)
  Keld L. Bak,                 UNI-C,                     Denmark     (AOSOPPA, non-adiabatic coupling, magnetic properties)
  Vebjoern Bakken,             University of Oslo,        Norway      (DALTON; geometry optimizer, symmetry detection)
  Radovan Bast,                UiT The Arctic U. of NorwayNorway      (DALTON installation and execution frameworks)
  Pablo Baudin,                University of Valencia,    Spain       (Cholesky excitation energies)
  Linus Boman,                 NTNU,                      Norway      (Cholesky decomposition and subsystems)
  Bruno N. Cabral Tenorio,     Technical Univ. of Denmark,Denmark     (Lanczos-based CC methods)
  Ove Christiansen,            Aarhus University,         Denmark     (CC module)
  Renzo Cimiraglia,            University of Ferrara,     Italy       (NEVPT2)
  Sonia Coriani,               Technical Univ. of Denmark,Denmark     (CC and RESPONS modules)
  Janusz Cukras,               University of Warsaw,      Poland      (MChD in RESPONS)
  Paal Dahle,                  University of Oslo,        Norway      (Parallelization)
  Erik K. Dalskov,             UNI-C,                     Denmark     (SOPPA)
  Thomas Enevoldsen,           Univ. of Southern Denmark, Denmark     (SOPPA)
  Janus J. Eriksen,            Aarhus University,         Denmark     (Polarizable embedding, TDA)
  Rasmus Faber,                Technical Univ. of Denmark,Denmark     (Vib.avg. NMR w. SOPPA, parallel AO-SOPPA, CVS-CC and EOMCC)
  Tobias Fahleson,             KTH Stockholm,             Sweden      (Damped cubic response)
  Berta Fernandez,             U. of Santiago de CompostelSpain       (Doublet spin, ESR in RESPONS)
  Lara Ferrighi,               Aarhus University,         Denmark     (PCM Cubic response)
  Heike Fliegl,                University of Oslo,        Norway      (CCSD(R12))
  Luca Frediani,               UiT The Arctic U. of NorwayNorway      (PCM)
  Emmanuel Fromager,           Univ. Strasbourg,          France      (MC-srDFT)
  Bin Gao,                     UiT The Arctic U. of NorwayNorway      (Gen1Int library)
  Andre S. P. Gomes,           CNRS/Universite de Lille,  France      (Frozen density embedding)
  Christof Haettig,            Ruhr-University Bochum,    Germany     (CC module)
  Kasper Hald,                 Aarhus University,         Denmark     (CC module)
  Asger Halkier,               Aarhus University,         Denmark     (CC module)
  Frederik Beyer Hansen,       University of Copenhagen,  Denmark     (Parallel AO-SOPPA)
  Erik D. Hedegaard,           Univ. of Southern Denmark, Denmark     (Polarizable embedding, QM/MM, and MC-srDFT)
  Hanne Heiberg,               University of Oslo,        Norway      (Geometry analysis, selected one-electron integrals)
  Trygve Helgaker,             University of Oslo,        Norway      (DALTON; ABACUS, ERI, DFT modules, London, and much more)
  Alf Christian Hennum,        University of Oslo,        Norway      (Parity violation)
  Hinne Hettema,               University of Auckland,    New Zealand (Quadratic response in RESPONS; SIRIUS supersymmetry)
  Andreas E. Hillers-Bendtsen, University of Copenhagen,  Denmark     (MP3)
  Eirik Hjertenaes,            NTNU,                      Norway      (Cholesky decomposition)
  Nicolai Machholdt Hoeyer,    Aarhus University,         Denmark     (MP3)
  Pi A. B. Haase,              University of Copenhagen,  Denmark     (Triplet AO-SOPPA)
  Maria Francesca Iozzi,       University of Oslo,        Norway      (RPA)
  Christoph Jacob,             TU Braunschweig            Germany     (Frozen density embedding)
  Brano Jansik,                Technical Univ. of Ostrava Czech Rep.  (DFT cubic response)
  Hans Joergen Aa. Jensen,     Univ. of Southern Denmark, Denmark     (DALTON; SIRIUS, RESPONS, ABACUS, MC-srDFT, and much more)
  Dan Jonsson,                 UiT The Arctic U. of NorwayNorway      (Cubic response in RESPONS module)
  Poul Joergensen,             Aarhus University,         Denmark     (RESPONS, ABACUS, and CC modules)
  Maciej Kaminski,             University of Warsaw,      Poland      (CPPh in RESPONS)
  Joanna Kauczor,              Linkoeping University,     Sweden      (Complex polarization propagator (CPP) module)
  Sheela Kirpekar,             Univ. of Southern Denmark, Denmark     (Mass-velocity & Darwin integrals)
  Frederik Oersted Kjeldal,    Technical Univ. of Denmark,Denmark     (MP3)
  Erik Kjellgren,              Univ. of Southern Denmark, Denmark     (MC-srDFT)
  Wim Klopper,                 KIT Karlsruhe,             Germany     (R12 code in CC, SIRIUS, and ABACUS modules)
  Stefan Knecht,               ETH Zurich,                Switzerland (Parallel CI and MCSCF, MC-srDFT)
  Rika Kobayashi,              Australian National Univ., Australia   (DIIS in CC, London in MCSCF)
  Henrik Koch,                 NTNU,                      Norway      (CC module, Cholesky decomposition)
  Jacob Kongsted,              Univ. of Southern Denmark, Denmark     (Polarizable embedding, polarizable density embedding, QM/MM)
  Andrea Ligabue,              University of Modena,      Italy       (CTOCD, AOSOPPA)
  Nanna H. List,               Univ. of Southern Denmark, Denmark     (Polarizable embedding)
  Ola B. Lutnaes,              University of Oslo,        Norway      (DFT Hessian)
  Juan I. Melo,                University of Buenos Aires,Argentina   (LRESC, Relativistic Effects on NMR Shieldings)
  Kurt V. Mikkelsen,           University of Copenhagen,  Denmark     (MC-SCRF, QM/MM, and MP3)
  Rolf H. Myhre,               NTNU,                      Norway      (Subsystems and CC3)
  Christian Neiss,             Univ. Erlangen-Nuernberg,  Germany     (CCSD(R12))
  Christian B. Nielsen,        University of Copenhagen,  Denmark     (QM/MM)
  Patrick Norman,              KTH Stockholm,             Sweden      (Cubic response and complex frequency response in RESPONS)
  Jeppe Olsen,                 Aarhus University,         Denmark     (SIRIUS CI/density modules)
  Jogvan Magnus H. Olsen,      Aarhus University,         Denmark     (Polarizable embedding and polarizable density embedding)
  Anders Osted,                Copenhagen University,     Denmark     (QM/MM)
  Martin J. Packer,            University of Sheffield,   UK          (SOPPA)
  Filip Pawlowski,             Kazimierz Wielki UniversityPoland      (CC3)
  Morten N. Pedersen,          Univ. of Southern Denmark, Denmark     (Polarizable embedding)
  Thomas B. Pedersen,          University of Oslo,        Norway      (Cholesky decomposition)
  Patricio F. Provasi,         University of Northeastern,Argentina   (Analysis of coupling constants in localized orbitals)
  Peter Reinholdt,             Univ. of Southern Denmark, Denmark     (Polarizable embedding and polarizable density embedding)
  Zilvinas Rinkevicius,        KTH Stockholm,             Sweden      (open-shell DFT, ESR)
  Elias Rudberg,               KTH Stockholm,             Sweden      (DFT grid and basis info)
  Torgeir A. Ruden,            University of Oslo,        Norway      (Numerical derivatives in ABACUS)
  Kenneth Ruud,                UiT The Arctic U. of NorwayNorway      (DALTON; ABACUS magnetic properties and much more)
  Pawel Salek,                 KTH Stockholm,             Sweden      (DALTON; DFT code)
  Claire C. M. Samson,         University of Karlsruhe    Germany     (Boys localization, r12 integrals in ERI)
  Alfredo Sanchez de Meras,    University of Valencia,    Spain       (CC module, Cholesky decomposition)
  Trond Saue,                  Paul Sabatier University,  France      (direct Fock matrix construction)
  Stephan P. A. Sauer,         University of Copenhagen,  Denmark     (SOPPA(CCSD), SOPPA prop., AOSOPPA, vibrational g-factors)
  Bernd Schimmelpfennig,       Forschungszentrum KarlsruheGermany     (AMFI module)
  Anna K. Schnack-Petersen,    University of Copenhagen,  Denmark     (RPA(D) and HRPA(D) properties in AOSOPPA)
  Kristian Sneskov,            Aarhus University,         Denmark     (Polarizable embedding, QM/MM)
  Arnfinn H. Steindal,         UiT The Arctic U. of NorwayNorway      (parallel QM/MM, polarizable embedding)
  Casper Steinmann,            Aalborg University,        Denmark     (QFIT, polarizable embedding)
  K. O. Sylvester-Hvid,        University of Copenhagen,  Denmark     (MC-SCRF)
  Peter R. Taylor,             VLSCI/Univ. of Melbourne,  Australia   (Symmetry handling ABACUS, integral transformation)
  Andrew M. Teale,             University of Nottingham,  England     (DFT-AC, DFT-D)
  David P. Tew,                University of Bristol,     England     (CCSD(R12))
  Julien Toulouse,             Sorbonne Univ.,            France      (MC-srDFT)
  Olav Vahtras,                KTH Stockholm,             Sweden      (Triplet response, spin-orbit, ESR, TDDFT, open-shell DFT)
  Lucas Visscher,              Vrije Universiteit AmsterdaNetherlands (Frozen density embedding)
  David J. Wilson,             La Trobe University,       Australia   (DFT Hessian and DFT magnetizabilities)
  Luna Zamok,                  University of Copenhagen,  Denmark     (Block Lanczos RPA solver in SOPPA module)
  Hans Agren,                  KTH Stockholm,             Sweden      (SIRIUS module, RESPONS, MC-SCRF solvation)
 --------------------------------------------------------------------------------

     Date and time (Linux)  : Thu May  7 17:33:25 2026
     Host name              : debian                                  

 * Work memory size             :    64000000 =  488.28 megabytes.

 * Directories for basis set searches:
   1) /home/vdwv/DIPLOM_ITMO/CALCULATIONS_AND_SOFTS/softwares/Dalton_Shenanigans/dalton/dalton/build/diplom_files/ch3cooh_acetic_acid/dft/ch3cooh_acetic_acid_dft_b3lyp_6-31g
   2) /home/vdwv/DIPLOM_ITMO/CALCULATIONS_AND_SOFTS/softwares/Dalton_Shenanigans/dalton/dalton/build/basis


Compilation information
-----------------------

 Who compiled             | vdwv
 Host                     | debian
 System                   | Linux-6.12.73+deb13-amd64
 CMake generator          | Unix Makefiles
 Processor                | x86_64
 64-bit integers          | OFF
 MPI                      | OFF
 Fortran compiler         | /usr/bin/gfortran
 Fortran compiler version | GNU Fortran (Debian 14.2.0-19) 14.2.0
 C compiler               | /usr/bin/gcc
 C compiler version       | gcc (Debian 14.2.0-19) 14.2.0
 C++ compiler             | /usr/bin/g++
 C++ compiler version     | g++ (Debian 14.2.0-19) 14.2.0
 BLAS                     | /opt/intel/oneapi/mkl/2025.3/lib/intel64/libmkl_gf
                          | _lp64.so;/opt/intel/oneapi/mkl/2025.3/lib/intel64/
                          | libmkl_sequential.so;/opt/intel/oneapi/mkl/2025.3/
                          | lib/intel64/libmkl_core.so;/usr/lib/x86_64-linux-g
                          | nu/libpthread.a;/usr/lib/x86_64-linux-gnu/libm.so
 LAPACK                   | /opt/intel/oneapi/mkl/2025.3/lib/intel64/libmkl_la
                          | pack95_lp64.a;/opt/intel/oneapi/mkl/2025.3/lib/int
                          | el64/libmkl_gf_lp64.so
 Static linking           | OFF
 Last Git revision        | 1892235f9264b9be21ec2fefe6e0081d659ab244
 Git branch               | master
 Configuration time       | 2026-05-04 17:50:26.788788

 * Sequential calculation.


   Content of the .dal input file
 ----------------------------------

BASIS
6-31G
Acetic acid CH3COOH using the 6-31G basis
Using automatic symmetry detection
AtomTypes=3 Angstrom
Charge=6.0 Atoms=2
C1    1.134     -0.828      0.000
C2    0.000      0.153      0.000
Charge=8.0 Atoms=2
O3    0.089      1.383      0.000
O7   -1.224     -0.492      0.000
Charge=1.0 Atoms=4
H4    2.082     -0.291      0.000
H5    1.072     -1.474      0.882
H6    1.072     -1.474     -0.882
H8   -1.953      0.166      0.000

**DALTON INPUT
.RUN WAVE FUN
**WAVE FUN
.DFT
 B3LYP
**END OF



       *******************************************************************
       *********** Output from DALTON general input processing ***********
       *******************************************************************

 --------------------------------------------------------------------------------
   Overall default print level:    0
   Print level for DALTON.STAT:    1

    HERMIT 1- and 2-electron integral sections will be executed
    "Old" integral transformation used (limited to max 255 basis functions)
    Wave function sections will be executed (SIRIUS module)
 --------------------------------------------------------------------------------


   ****************************************************************************
   *************** Output of molecule and basis set information ***************
   ****************************************************************************


    The two title cards from your ".mol" input:
    --------------------------------------------------------------------------------
 1: Acetic acid CH3COOH using the 6-31G basis
 2: Using automatic symmetry detection
    --------------------------------------------------------------------------------

  Coordinates are entered in Angstrom and converted to atomic units.
          - Conversion factor : 1 bohr = 0.52917721080 A

  Atomic type no.    1
  --------------------
  Nuclear charge:   6.00000
  Number of symmetry independent centers:    2
  Number of basis sets to read;    2
  Basis set file used for this atomic type with Z =   6 :
     "/home/vdwv/DIPLOM_ITMO/CALCULATIONS_AND_SOFTS/softwares/Dalton_Shenanigans/dalton/dalton/build/basis/6-31G"

  Info about the basis set file: your basis has no documentation.
  Basis set: 6-31G                                                                           

  Atomic type no.    2
  --------------------
  Nuclear charge:   8.00000
  Number of symmetry independent centers:    2
  Number of basis sets to read;    2
  Basis set file used for this atomic type with Z =   8 :
     "/home/vdwv/DIPLOM_ITMO/CALCULATIONS_AND_SOFTS/softwares/Dalton_Shenanigans/dalton/dalton/build/basis/6-31G"

  Info about the basis set file: your basis has no documentation.
  Basis set: 6-31G                                                                           

  Atomic type no.    3
  --------------------
  Nuclear charge:   1.00000
  Number of symmetry independent centers:    4
  Number of basis sets to read;    2
  Basis set file used for this atomic type with Z =   1 :
     "/home/vdwv/DIPLOM_ITMO/CALCULATIONS_AND_SOFTS/softwares/Dalton_Shenanigans/dalton/dalton/build/basis/6-31G"

  Info about the basis set file: your basis has no documentation.
  Basis set: 6-31G                                                                           


                      SYMADD: Addition of symmetry requested
                      --------------------------------------

 Symmetry test threshold:  5.00E-06

@  The molecule has been centered at center of mass and rotated
@  so the principal axes of inertia are along coordinate axes.

 Symmetry class found: C(s)           

 Symmetry Independent Centres             
 ----------------------------
O7     8 :     -1.24570845    -2.12775248     0.00000000  Isotope  1
O3     8 :     -1.25042321     2.19785818     0.00000000  Isotope  1
C2     6 :     -0.05273384     0.19873574     0.00000000  Isotope  1
C1     6 :      2.76630093    -0.08749619     0.00000000  Isotope  1
H8     1 :     -3.08764538    -1.90143164     0.00000000  Isotope  1
H5     1 :      3.37173270    -1.15400547     1.66673844  Isotope  1
H4     1 :      3.64962344     1.77230380     0.00000000  Isotope  1

 The following symmetry element was found:   Z        


                         SYMGRP: Point group information
                         -------------------------------

@    Full point group is: C(s)           
@    Represented as:      Cs 

@  * The irrep name for each symmetry:    1: A'     2: A" 

   * The point group was generated by:

      Reflection in the xy-plane

   * Group multiplication table

        |  E   Oxy
   -----+----------
     E  |  E   Oxy
    Oxy | Oxy   E 

   * Character table

        |  E   Oxy
   -----+----------
    A'  |   1    1
    A"  |   1   -1

   * Direct product table

        | A'   A" 
   -----+----------
    A'  | A'   A" 
    A"  | A"   A' 


                                 Isotopic Masses
                                 ---------------

                           C1         12.000000
                           C2         12.000000
                           O3         15.994915
                           O7         15.994915
                           H4          1.007825
                           H5  _1      1.007825
                           H5  _2      1.007825
                           H8          1.007825

                       Total mass:    60.021130 amu
                       Natural abundance:  97.285 %

 Center-of-mass coordinates (a.u.):   -0.000000    0.000000    0.000000
 Center-of-mass coordinates (Angs):   -0.000000    0.000000    0.000000


  Atoms and basis sets
  --------------------

  Number of atom types :    3
  Total number of atoms:    8

  Basis set used is "6-31G" from the basis set library.

  label    atoms   charge   prim   cont     basis
  ----------------------------------------------------------------------
  C2          2    6.0000    22     9      [10s4p|3s2p]                                       
  O7          2    8.0000    22     9      [10s4p|3s2p]                                       
  H8          4    1.0000     4     2      [4s|2s]                                            
  ----------------------------------------------------------------------
  total:      8   32.0000   104    44
  ----------------------------------------------------------------------

  Threshold for neglecting AO integrals:  1.00D-12


  Cartesian Coordinates (bohr)
  ----------------------------

  Total number of coordinates:   24
  C1      :     1  x   2.7663009347    2  y  -0.0874961899    3  z   0.0000000000
  C2      :     4  x  -0.0527338367    5  y   0.1987357402    6  z   0.0000000000
  O3      :     7  x  -1.2504232099    8  y   2.1978581844    9  z   0.0000000000
  O7      :    10  x  -1.2457084501   11  y  -2.1277524794   12  z   0.0000000000
  H4      :    13  x   3.6496234429   14  y   1.7723037952   15  z   0.0000000000
  H5  / 1 :    16  x   3.3717326984   17  y  -1.1540054689   18  z   1.6667384422
  H5  / 2 :    19  x   3.3717326984   20  y  -1.1540054689   21  z  -1.6667384422
  H8      :    22  x  -3.0876453801   23  y  -1.9014316432   24  z   0.0000000000


  Cartesian Coordinates (xyz format; angstrom)
  --------------------------------------------

    8

  C        1.4638634128           -0.0463009897            0.0000000000
  C       -0.0279055446            0.1051664247            0.0000000000
  O       -0.6616954665            1.1630564638            0.0000000000
  O       -0.6592005231           -1.1259581223            0.0000000000
  H        1.9312975540            0.9378627790            0.0000000000
  H        1.7842441049           -0.6106733953            0.8820000000
  H        1.7842441049           -0.6106733953           -0.8820000000
  H       -1.6339115702           -1.0061942935            0.0000000000


  Symmetry Coordinates
  --------------------

  Number of coordinates in each symmetry:    15    9

  Symmetry  A'  ( 1)

    1   C1    x    1
    2   C1    y    2
    3   C2    x    4
    4   C2    y    5
    5   O3    x    7
    6   O3    y    8
    7   O7    x   10
    8   O7    y   11
    9   H4    x   13
   10   H4    y   14
   11   H5    x    [ 16  +   19 ]/2
   12   H5    y    [ 17  +   20 ]/2
   13   H5    z    [ 18  -   21 ]/2
   14   H8    x   22
   15   H8    y   23

  Symmetry  A"  ( 2)

   16   C1    z    3
   17   C2    z    6
   18   O3    z    9
   19   O7    z   12
   20   H4    z   15
   21   H5    x    [ 16  -   19 ]/2
   22   H5    y    [ 17  -   20 ]/2
   23   H5    z    [ 18  +   21 ]/2
   24   H8    z   24


   Interatomic separations (in Angstrom):
   --------------------------------------

            C1          C2          O3          O7          H4          H5  _1
            ------      ------      ------      ------      ------      ------
 C1    :    0.000000
 C2    :    1.499439    0.000000
 O3    :    2.445515    1.233216    0.000000
 O7    :    2.381819    1.383547    2.289016    0.000000
 H4    :    1.089529    2.128817    2.602753    3.312105    0.000000
 H5  _1:    1.095027    2.138747    3.147485    2.648370    1.788159    0.000000
 H5  _2:    1.095027    2.138747    3.147485    2.648370    1.788159    1.764000
 H8    :    3.243086    1.953043    2.377152    0.982041    4.060797    3.552203

            H5  _2      H8    
            ------      ------
 H5  _2:    0.000000
 H8    :    3.552203    0.000000


  Max    interatomic separation is    4.0608 Angstrom (    7.6738 Bohr)
  between atoms    8 and    5, "H8    " and "H4    ".

  Min HX interatomic separation is    0.9820 Angstrom (    1.8558 Bohr)

  Min YX interatomic separation is    1.2332 Angstrom (    2.3304 Bohr)


  Bond distances (Angstrom):
  --------------------------

                  atom 1     atom 2       distance
                  ------     ------       --------
  bond distance:  C2         C1           1.499439
  bond distance:  O3         C2           1.233216
  bond distance:  O7         C2           1.383547
  bond distance:  H4         C1           1.089529
  bond distance:  H5  _1     C1           1.095027
  bond distance:  H5  _2     C1           1.095027
  bond distance:  H8         O7           0.982041


  Bond angles (degrees):
  ----------------------

                  atom 1     atom 2     atom 3         angle
                  ------     ------     ------         -----
  bond angle:     C2         C1         H4           109.608
  bond angle:     C2         C1         H5  _1       110.069
  bond angle:     C2         C1         H5  _2       110.069
  bond angle:     H4         C1         H5  _1       109.879
  bond angle:     H4         C1         H5  _2       109.879
  bond angle:     H5  _1     C1         H5  _2       107.309
  bond angle:     C1         C2         O3           126.724
  bond angle:     C1         C2         O7           111.350
  bond angle:     O3         C2         O7           121.926
  bond angle:     C2         O7         H8           110.143




 Principal moments of inertia (u*A**2) and principal axes
 --------------------------------------------------------

   IA      46.299354          1.000000    0.000000    0.000000
   IB      54.112394         -0.000000    1.000000    0.000000
   IC      97.275703          0.000000    0.000000    1.000000


 Rotational constants
 --------------------

               A                   B                   C

          10915.4657           9339.4317           5195.3262 MHz
            0.364101            0.311530            0.173297 cm-1


@  Nuclear repulsion energy :  119.489484532002 Hartree


  Symmetry Orbitals
  -----------------

  Number of orbitals in each symmetry:          34   10


  Symmetry  A' ( 1)

    1     C1       1s         1
    2     C1       1s         2
    3     C1       1s         3
    4     C1       2px        4
    5     C1       2py        5
    6     C1       2px        7
    7     C1       2py        8
    8     C2       1s        10
    9     C2       1s        11
   10     C2       1s        12
   11     C2       2px       13
   12     C2       2py       14
   13     C2       2px       16
   14     C2       2py       17
   15     O3       1s        19
   16     O3       1s        20
   17     O3       1s        21
   18     O3       2px       22
   19     O3       2py       23
   20     O3       2px       25
   21     O3       2py       26
   22     O7       1s        28
   23     O7       1s        29
   24     O7       1s        30
   25     O7       2px       31
   26     O7       2py       32
   27     O7       2px       34
   28     O7       2py       35
   29     H4       1s        37
   30     H4       1s        38
   31     H5       1s        39 +   40
   32     H5       1s        41 +   42
   33     H8       1s        43
   34     H8       1s        44


  Symmetry  A" ( 2)

   35     C1       2pz        6
   36     C1       2pz        9
   37     C2       2pz       15
   38     C2       2pz       18
   39     O3       2pz       24
   40     O3       2pz       27
   41     O7       2pz       33
   42     O7       2pz       36
   43     H5       1s        39 -   40
   44     H5       1s        41 -   42

  Symmetries of electric field:  A' (1)  A' (1)  A" (2)

  Symmetries of magnetic field:  A" (2)  A" (2)  A' (1)


                     .---------------------------------------.
                     | Starting in Integral Section (HERMIT) |
                     `---------------------------------------'



 ***************************************************************************************
 ****************** Output from **INTEGRALS input processing (HERMIT) ******************
 ***************************************************************************************


 - Using defaults, no **INTEGRALS input found

 Default print level:        1

 Calculation of one- and two-electron Hamiltonian integrals.

 Center of mass  (bohr):     -0.000000000000      0.000000000000      0.000000000000
 Operator center (bohr):      0.000000000000      0.000000000000      0.000000000000
 Gauge origin    (bohr):     -0.000000000000      0.000000000000      0.000000000000
 Dipole origin   (bohr):     -0.000000000000      0.000000000000      0.000000000000

Calculation of 2-electron integrals are postponed until they are needed.


     ************************************************************************
     ************************** Output from HERINT **************************
     ************************************************************************



                      Nuclear contribution to dipole moments
                      --------------------------------------

                 au               Debye          C m (/(10**-30)

      x      3.61779277         9.19551141        30.67292443
      y     -1.20885584        -3.07260488       -10.24910666


  Total CPU  time used in HERMIT:   0.04 seconds
  Total wall time used in HERMIT:   0.04 seconds


                        .----------------------------------.
                        | End of Integral Section (HERMIT) |
                        `----------------------------------'



                   .--------------------------------------------.
                   | Starting in Wave Function Section (SIRIUS) |
                   `--------------------------------------------'


 *** Output from Huckel module :

     Using EWMO model:          F
     Using EHT  model:          T
     Number of Huckel orbitals each symmetry:   19    5

 Huckel EHT eigenvalues for symmetry :  1
          -20.706462     -20.702969     -11.387916     -11.371999      -1.643489
           -1.402121      -1.234013      -0.788919      -0.723221      -0.691012
           -0.574510      -0.562786      -0.492869      -0.289594      -0.266676
           -0.222678      -0.212887      -0.193715      -0.183413

 Huckel EHT eigenvalues for symmetry :  2
           -0.756744      -0.598454      -0.580819      -0.314625      -0.200310

 **********************************************************************
 *SIRIUS* a direct, restricted step, second order MCSCF program       *
 **********************************************************************

 
     Date and time (Linux)  : Thu May  7 17:33:25 2026
     Host name              : debian                                  

 Title lines from ".mol" input file:
     Acetic acid CH3COOH using the 6-31G basis
     Using automatic symmetry detection

 Print level on unit LUPRI =   2 is   0
 Print level on unit LUW4  =   2 is   5

@    Restricted, closed shell Kohn-Sham DFT calculation.

 Initial molecular orbitals are obtained according to
 ".MOSTART EHT   " input option

     Wave function specification
     ============================
@    Wave function type        --- KS-DFT ---
@    Number of closed shell electrons          32
@    Number of electrons in active shells       0
@    Total charge of the molecule               0

@    Spin multiplicity and 2 M_S                1         0
@    Total number of symmetries                 2 (point group: Cs )
@    Reference state symmetry                   1 (irrep name : A' )
 
     This is a DFT calculation of type: B3LYP
 Weighted mixed functional:
               HF exchange:    0.20000
                       VWN:    0.19000
                       LYP:    0.81000
                     Becke:    0.72000
                    Slater:    0.80000

     Orbital specifications
     ======================
@    Abelian symmetry species          All |    1    2
@                                          |  A'   A" 
                                       --- |  ---  ---
@    Total number of orbitals           44 |   34   10
@    Number of basis functions          44 |   34   10

      ** Automatic occupation of RKS orbitals **

      -- Initial occupation of symmetries is determined from extended Huckel guess.           
      -- Initial occupation of symmetries is :
@    Occupied SCF orbitals              16 |   13    3

     Maximum number of Fock   iterations      0
     Maximum number of DIIS   iterations     60
     Maximum number of QC-SCF iterations     60
     Threshold for SCF convergence     1.00D-05
 
     This is a DFT calculation of type: B3LYP
 Weighted mixed functional:
               HF exchange:    0.20000
                       VWN:    0.19000
                       LYP:    0.81000
                     Becke:    0.72000
                    Slater:    0.80000


 ***********************************************
 ***** DIIS acceleration of SCF iterations *****
 ***********************************************

 C1-DIIS algorithm; max error vectors =    8

 Automatic occupation of symmetries with  32 electrons.

 Iter     Total energy    Error norm  Delta(E)    SCF occupation
 -----------------------------------------------------------------------------

---> (Re)generating AOTWOINT


     ************************************************************************
     ************************** Output from HERINT **************************
     ************************************************************************


***  INFO  GETGAB: GABSO--- not found on AOGABINT. Regenerating.

 Threshold for neglecting two-electron integrals:  1.00D-12
 HERMIT - Number of two-electron integrals written:      263835 ( 53.8% )
 HERMIT - Megabytes written:                              3.021

  Total CPU  time used in TWOINT:   0.14 seconds
  Total wall time used in TWOINT:   0.14 seconds
  Time used in TWOINT     is       0.15 seconds
      K-S energy, electrons, error :    -23.529258510330  32.0000011189    1.12D-06
@  1  -228.019702326       4.07D+00  -2.28D+02    13   3
      Virial theorem: -V/T =      2.003176
@    MULPOP   C1      0.34; C2      1.09; O3     -0.90; O7     -0.47; H4     -0.11; H5  _1 -0.08; H5  _2 -0.08; H8      0.20; 
   1  Level shift: doubly occupied orbital energies shifted by -2.00D-01
 -----------------------------------------------------------------------------
      K-S energy, electrons, error :    -23.698938259438  31.9999998524   -1.48D-07
@  2  -228.010348056       4.19D+00   9.35D-03    13   3
      Virial theorem: -V/T =      2.002882
@    MULPOP   C1     -0.93; C2     -0.99; O3      1.02; O7     -0.43; H4      0.33; H5  _1  0.31; H5  _2  0.31; H8      0.39; 
   2  Level shift: doubly occupied orbital energies shifted by -2.00D-01
 -----------------------------------------------------------------------------
      K-S energy, electrons, error :    -23.847660433785  32.0000000044    4.41D-09
@  3  -228.843301522       9.67D-01  -8.33D-01    13   3
      Virial theorem: -V/T =      2.000762
@    MULPOP   C1     -0.62; C2      0.47; O3     -0.51; O7     -0.39; H4      0.22; H5  _1  0.23; H5  _2  0.23; H8      0.36; 
   3  Level shift: doubly occupied orbital energies shifted by -5.00D-02
 -----------------------------------------------------------------------------
      K-S energy, electrons, error :    -23.720039928924  31.9999995838   -4.16D-07
@  4  -228.866512919       6.19D-01  -2.32D-02    13   3
      Virial theorem: -V/T =      2.005660
@    MULPOP   C1     -0.30; C2      0.57; O3     -0.39; O7     -0.67; H4      0.13; H5  _1  0.13; H5  _2  0.13; H8      0.39; 
   4  Level shift: doubly occupied orbital energies shifted by -5.00D-02
 -----------------------------------------------------------------------------
      K-S energy, electrons, error :    -23.710256657279  31.9999998465   -1.54D-07
@  5  -228.885731089       1.50D-01  -1.92D-02    13   3
      Virial theorem: -V/T =      2.006231
@    MULPOP   C1     -0.42; C2      0.48; O3     -0.43; O7     -0.52; H4      0.17; H5  _1  0.18; H5  _2  0.18; H8      0.37; 
   5  Level shift: doubly occupied orbital energies shifted by -1.25D-02
 -----------------------------------------------------------------------------
      K-S energy, electrons, error :    -23.746224727666  31.9999997781   -2.22D-07
@  6  -228.886737718       3.87D-02  -1.01D-03    13   3
      Virial theorem: -V/T =      2.004852
@    MULPOP   C1     -0.46; C2      0.48; O3     -0.42; O7     -0.55; H4      0.18; H5  _1  0.19; H5  _2  0.19; H8      0.39; 
 -----------------------------------------------------------------------------
      K-S energy, electrons, error :    -23.737741160486  31.9999997742   -2.26D-07
@  7  -228.886816361       8.24D-03  -7.86D-05    13   3
      Virial theorem: -V/T =      2.005151
@    MULPOP   C1     -0.44; C2      0.47; O3     -0.40; O7     -0.55; H4      0.18; H5  _1  0.18; H5  _2  0.18; H8      0.38; 
 -----------------------------------------------------------------------------
      K-S energy, electrons, error :    -23.737933529677  31.9999997746   -2.25D-07
@  8  -228.886820261       2.42D-03  -3.90D-06    13   3
      Virial theorem: -V/T =      2.005153
@    MULPOP   C1     -0.45; C2      0.47; O3     -0.41; O7     -0.55; H4      0.18; H5  _1  0.18; H5  _2  0.18; H8      0.38; 
 -----------------------------------------------------------------------------
      K-S energy, electrons, error :    -23.738113308779  31.9999997750   -2.25D-07
@  9  -228.886820639       2.77D-04  -3.78D-07    13   3
      Virial theorem: -V/T =      2.005145
@    MULPOP   C1     -0.45; C2      0.47; O3     -0.41; O7     -0.55; H4      0.18; H5  _1  0.18; H5  _2  0.18; H8      0.38; 
 -----------------------------------------------------------------------------
      K-S energy, electrons, error :    -23.738117614619  31.9999997749   -2.25D-07
@ 10  -228.886820643       1.76D-05  -4.32D-09    13   3
      Virial theorem: -V/T =      2.005145
@    MULPOP   C1     -0.45; C2      0.47; O3     -0.41; O7     -0.55; H4      0.18; H5  _1  0.18; H5  _2  0.18; H8      0.38; 
 -----------------------------------------------------------------------------
      K-S energy, electrons, error :    -23.738117348332  31.9999997749   -2.25D-07
@ 11  -228.886820643       3.25D-06  -2.67D-11    13   3

@ *** DIIS converged in  11 iterations !
@     Converged SCF energy, gradient:   -228.886820643274    3.25D-06
    - total time used in SIRFCK :              0.21 seconds


 *** SCF orbital energy analysis ***

 Only the 20 lowest virtual orbital energies printed in each symmetry.

 Number of electrons        :   32
 Closed shell orbitals      :   13    3

 Sym       Kohn-Sham orbital energies

1 A'    -19.19185039   -19.14685392   -10.33353981   -10.19709299    -1.11197780
         -1.02541972    -0.76643202    -0.61694986    -0.49270664    -0.46623722
         -0.41387911    -0.38413764    -0.27760078     0.06540313     0.11481456
          0.15541658     0.20208403     0.27126138     0.32231941     0.57053132
          0.59267667     0.62708199     0.66773292     0.77124365     0.82037530
          0.92794738     0.95299564     0.95923974     1.03159015     1.11344670
          1.18771721     1.39715862     1.73072916

2 A"     -0.47001116    -0.39061286    -0.31668557    -0.00696285     0.16807257
          0.52815996     0.62994304     0.88379536     0.93984287     1.04341020

    E(LUMO) :    -0.00696285 au (symmetry 2)
  - E(HOMO) :    -0.27760078 au (symmetry 1)
  ------------------------------------------
    gap     :     0.27063793 au

 --- Writing SIRIFC interface file

--------------------------------------------------------------------------------


     .-----------------------------------------------.
     | DFT KT IPs [a.u. & eV] from Koopmans' theorem |
     `-----------------------------------------------'


     DFT KT symmetry 1 ( A' ) in point group Cs  -- 13 principal poles with pole strength 1

   ============  ============  ============  ============  ============
      19.191850     19.146854     10.333540     10.197093      1.111978
     522.236815    521.012399    281.189922    277.477015     30.258455
   ============  ============  ============  ============  ============

   ============  ============  ============  ============  ============
       1.025420      0.766432      0.616950      0.492707      0.466237
      27.903090     20.855676     16.788060     13.407230     12.686960
   ============  ============  ============  ============  ============

   ============  ============  ============
       0.413879      0.384138      0.277601
      11.262224     10.452917      7.553901
   ============  ============  ============

     DFT KT symmetry 2 ( A" ) in point group Cs  -- 3 principal poles with pole strength 1

   ============  ============  ============
       0.470011      0.390613      0.316686
      12.789654     10.629117      8.617453
   ============  ============  ============

@ Summary of DFT KT ionization potentials [eV]:

@ Symmetry 1 (A' ) :   522.237     521.012     281.190     277.477      30.258
@                       27.903      20.856      16.788      13.407      12.687
@                       11.262      10.453       7.554

@ Symmetry 2 (A" ) :    12.790      10.629       8.617

  === End of DFT KT output ===
--------------------------------------------------------------------------------


 CPU and wall time for SCF :       7.402       7.403


                       .-----------------------------------.
                       | --- Final results from SIRIUS --- |
                       `-----------------------------------'


@    Spin multiplicity:           1
@    Spatial symmetry:            1 ( irrep  A'  in Cs  )
@    Total charge of molecule:    0

@    Final DFT energy:           -228.886820643274                 
@    Nuclear repulsion:           119.489484532002
@    Electronic energy:          -348.376305175276

@    Final gradient norm:           0.000003253968

 
     Date and time (Linux)  : Thu May  7 17:33:33 2026
     Host name              : debian                                  

File label for MO orbitals:   7May26   FOCKDIIS

 (Only coefficients > 0.0100 are printed.)

 Molecular orbitals for symmetry species 1  (A' )
 ------------------------------------------------

    Orbital         1        2        3        4        5        6        7
   1 C1  :1s    -0.0001  -0.0000   0.0006   0.9953  -0.0168  -0.0041  -0.1767
   2 C1  :1s    -0.0006  -0.0002  -0.0015   0.0377   0.0317   0.0080   0.3426
   3 C1  :1s     0.0025   0.0030   0.0100  -0.0349   0.0143  -0.0046   0.3015
   4 C1  :2px    0.0001   0.0000   0.0007  -0.0002  -0.0257  -0.0057  -0.0563
   5 C1  :2py    0.0002  -0.0000  -0.0002  -0.0001   0.0008   0.0123  -0.0051
   7 C1  :2py    0.0012  -0.0027   0.0005  -0.0002  -0.0011   0.0204   0.0003
   8 C2  :1s     0.0000   0.0002   0.9951  -0.0006  -0.1177  -0.0448  -0.0774
   9 C2  :1s    -0.0001   0.0004   0.0341  -0.0014   0.2440   0.0934   0.1681
  10 C2  :1s     0.0054   0.0086  -0.0185   0.0088   0.0238   0.0294   0.1138
  11 C2  :2px   -0.0002   0.0001  -0.0008  -0.0007  -0.1038  -0.0439   0.1854
  12 C2  :2py   -0.0002  -0.0001   0.0002   0.0001   0.0125   0.2275  -0.0760
  13 C2  :2px   -0.0049  -0.0068  -0.0086   0.0056   0.0319   0.0138   0.0386
  14 C2  :2py   -0.0058   0.0098   0.0025   0.0009   0.0023  -0.0594  -0.0195
  15 O3  :1s    -0.0004   0.9952  -0.0001   0.0000  -0.1130  -0.1587   0.0422
  16 O3  :1s    -0.0002   0.0300   0.0002  -0.0001   0.2482   0.3494  -0.0971
  17 O3  :1s     0.0001  -0.0233  -0.0029  -0.0004   0.2310   0.3542  -0.0979
  18 O3  :2px   -0.0002   0.0012  -0.0004  -0.0000   0.0521   0.0797   0.0257
  19 O3  :2py    0.0000  -0.0022   0.0004   0.0001  -0.1077  -0.1189   0.0190
  20 O3  :2px    0.0015  -0.0035   0.0001  -0.0006   0.0129   0.0329   0.0120
  21 O3  :2py    0.0009   0.0062   0.0027  -0.0002  -0.0439  -0.0443   0.0033
  22 O7  :1s     0.9951   0.0004   0.0001  -0.0000  -0.1526   0.1409   0.0271
  23 O7  :1s     0.0294  -0.0002   0.0003  -0.0004   0.3326  -0.3089  -0.0617
  24 O7  :1s    -0.0190   0.0010  -0.0003   0.0008   0.3442  -0.3469  -0.0817
  25 O7  :2px   -0.0007  -0.0002  -0.0004  -0.0003  -0.0306   0.0416   0.1294
  26 O7  :2py    0.0020  -0.0001  -0.0003  -0.0001   0.1083  -0.0621   0.0281
  27 O7  :2px   -0.0002   0.0019   0.0015   0.0011  -0.0108   0.0088   0.0484
  28 O7  :2py   -0.0051  -0.0006  -0.0017   0.0005   0.0656  -0.0401   0.0065
  29 H4  :1s    -0.0003   0.0002  -0.0003  -0.0004   0.0049   0.0026   0.1013
  30 H4  :1s     0.0001   0.0009   0.0005   0.0057  -0.0029  -0.0018   0.0132
  31 H5  :1s    -0.0000  -0.0002  -0.0004  -0.0004   0.0046   0.0006   0.1074
  32 H5  :1s    -0.0001  -0.0005   0.0008   0.0059  -0.0012  -0.0013   0.0190
  33 H8  :1s     0.0006   0.0003   0.0006   0.0003   0.0903  -0.0932  -0.0785
  34 H8  :1s     0.0020   0.0000   0.0006   0.0009  -0.0009   0.0038  -0.0212

    Orbital         8        9       10       11       12       13       14
   1 C1  :1s    -0.0811   0.0282   0.0158  -0.0009   0.0137  -0.0244  -0.0556
   2 C1  :1s     0.1549  -0.0473  -0.0230   0.0004  -0.0221   0.0385   0.0743
   3 C1  :1s     0.1941  -0.1246  -0.1308   0.0030  -0.1618   0.2227   0.7866
   4 C1  :2px    0.1209  -0.2524  -0.1525   0.1350   0.1963  -0.1665  -0.0565
   5 C1  :2py    0.0349   0.1754  -0.0344   0.4165  -0.0343   0.0784   0.0218
   6 C1  :2px    0.0236  -0.0655  -0.0478   0.0534   0.1312  -0.1347  -0.0573
   7 C1  :2py    0.0105   0.0773  -0.0409   0.1755  -0.0113   0.0769   0.1523
   8 C2  :1s     0.0906  -0.0801   0.0394   0.0254   0.0131  -0.0127   0.0277
   9 C2  :1s    -0.2126   0.1917  -0.1220  -0.0615  -0.0233   0.0281  -0.0172
  10 C2  :1s    -0.1738   0.1886  -0.0370  -0.0593  -0.0257   0.0443  -0.3689
  11 C2  :2px    0.0651   0.2196   0.2986  -0.0554  -0.1798   0.0636   0.0323
  12 C2  :2py    0.2021   0.2054  -0.0656  -0.0748   0.2334  -0.0064   0.1118
  13 C2  :2px   -0.0077   0.1295   0.1612  -0.0267   0.0845  -0.1330  -0.1102
  14 C2  :2py    0.0462   0.0371  -0.0177   0.0310  -0.0700  -0.1646   0.0289
  15 O3  :1s    -0.0323   0.0711  -0.0785  -0.0162   0.0348   0.0024  -0.0126
  16 O3  :1s     0.0725  -0.1605   0.1667   0.0354  -0.0781  -0.0128   0.0376
  17 O3  :1s     0.0926  -0.2519   0.3431   0.0461  -0.0714   0.0298   0.0731
  18 O3  :2px    0.0132   0.2498  -0.0106  -0.0557   0.2166  -0.5072  -0.0897
  19 O3  :2py    0.0539  -0.0994   0.3280   0.1013  -0.2698  -0.3060  -0.0457
  20 O3  :2px    0.0030   0.1192   0.0082  -0.0269   0.1354  -0.3298  -0.0440
  21 O3  :2py    0.0247  -0.0462   0.1473   0.0615  -0.1624  -0.2130  -0.0609
  22 O7  :1s    -0.0226   0.0067  -0.0578  -0.0254  -0.0638   0.0099  -0.0803
  23 O7  :1s     0.0507  -0.0209   0.1303   0.0567   0.1463  -0.0042   0.1667
  24 O7  :1s     0.0748  -0.0095   0.2159   0.1302   0.2431  -0.2018   0.8683
  25 O7  :2px   -0.3680  -0.1564   0.1638   0.1498   0.2496   0.0097  -0.2761
  26 O7  :2py   -0.2062  -0.0968  -0.2854   0.0567  -0.3280  -0.2698   0.0888
  27 O7  :2px   -0.1684  -0.0900   0.1003   0.0916   0.1297  -0.0123  -0.4579
  28 O7  :2py   -0.0929  -0.0394  -0.1703   0.0419  -0.2245  -0.2516   0.1273
  29 H4  :1s     0.1008  -0.0007  -0.0688   0.2882   0.0221   0.0179  -0.0524
  30 H4  :1s     0.0450  -0.0051  -0.0137   0.2324   0.0292  -0.0340  -0.4727
  31 H5  :1s     0.0719  -0.1203  -0.0307  -0.1154   0.0446  -0.0445   0.0167
  32 H5  :1s     0.0263  -0.0761  -0.0132  -0.0873   0.0557  -0.0567  -0.1763
  33 H8  :1s     0.2135   0.0838  -0.0655  -0.0841  -0.1464   0.0032  -0.1711
  34 H8  :1s     0.0882   0.0423  -0.0167  -0.0592  -0.0998   0.0596  -1.3549

    Orbital        15       16       17       18       19       20       21
   1 C1  :1s     0.1326  -0.0201   0.0607   0.0695  -0.0037  -0.0266   0.0275
   2 C1  :1s    -0.1610   0.0262  -0.0346  -0.0111  -0.0819   0.2315  -0.1883
   3 C1  :1s    -2.1400   0.3906  -1.0888  -1.7490   0.7984  -0.4933  -0.4978
   4 C1  :2px   -0.1567   0.1662   0.2625   0.0002   0.1252  -0.7816   0.6791
   5 C1  :2py    0.1119   0.3631  -0.0958  -0.0284  -0.1784  -0.2303  -0.3349
   6 C1  :2px   -0.4445   0.4983   1.4059   1.4142  -0.3867   1.1764  -0.7657
   7 C1  :2py    0.4224   1.1918  -0.1654  -0.3787  -0.9208   0.4716   0.7049
   8 C2  :1s    -0.0182  -0.0192  -0.1659   0.0104  -0.0106   0.0198  -0.0345
   9 C2  :1s    -0.0526   0.0017   0.2485   0.0591  -0.1223   0.2969   0.3791
  10 C2  :1s     0.5261   0.4334   2.7500   0.1446   0.8151   0.0376  -1.3466
  11 C2  :2px    0.0045   0.0512   0.0666   0.5758   0.0961  -0.4978  -0.2013
  12 C2  :2py    0.0402   0.0884  -0.2134   0.2053   0.3986  -0.3663  -0.4459
  13 C2  :2px   -0.1133   0.0703   0.5452   1.9949  -0.9908   0.9731   1.1679
  14 C2  :2py    0.0488   0.0212  -0.4360   0.1688   2.4134   0.5830   0.2676
  15 O3  :1s     0.0186   0.0147   0.0320  -0.0396   0.1005   0.0002  -0.0198
  16 O3  :1s    -0.0342  -0.0306  -0.0768   0.0760  -0.1684  -0.0041   0.0072
  17 O3  :1s    -0.2710  -0.1698  -0.3349   0.6878  -2.0680   0.0302   0.6386
  18 O3  :2px   -0.0911  -0.0379  -0.0674  -0.1263  -0.1695   0.0268  -0.2481
  19 O3  :2py    0.0239   0.0803   0.1706  -0.1846   0.0753   0.0269  -0.0967
  20 O3  :2px   -0.1057  -0.0935  -0.1659  -0.2347  -0.5656  -0.1385   0.0658
  21 O3  :2py    0.1217   0.1033   0.2633  -0.5101   0.6876  -0.0972  -0.3748
  22 O7  :1s    -0.0057  -0.0021   0.0444  -0.0496  -0.0439  -0.0190   0.0048
  23 O7  :1s     0.0081   0.0215  -0.0873   0.1142   0.0736   0.0722  -0.0442
  24 O7  :1s     0.0653  -0.1283  -0.5484   0.6232   0.7657   0.3886   0.5003
  25 O7  :2px   -0.1082   0.1305  -0.2125   0.1215   0.1245   0.1409   0.0141
  26 O7  :2py   -0.0002   0.0152  -0.2625   0.2550   0.0439  -0.1559  -0.0805
  27 O7  :2px   -0.1452   0.1608  -0.4754   0.1547   0.4923  -0.0558  -0.0195
  28 O7  :2py   -0.0748  -0.0023  -0.4765   0.5881   0.2270   0.1724   0.2347
  29 H4  :1s    -0.0109  -0.1377  -0.0282  -0.0595  -0.1187  -0.3166  -0.1099
  30 H4  :1s     0.5822  -1.9497   0.0154   0.2570   0.5900  -0.2573  -0.1011
  31 H5  :1s     0.0545   0.0409  -0.0515  -0.0426   0.0337   0.0799   0.2047
  32 H5  :1s     1.2954   0.5065  -0.2558  -0.0305  -0.4315  -0.0201   0.2421
  33 H8  :1s    -0.0416  -0.0096  -0.0516   0.0782  -0.0736  -0.1907   0.1598
  34 H8  :1s    -0.3689   0.3078  -0.3867   0.3499   0.1210   0.3698   0.1538

    Orbital        22       23
   2 C1  :1s    -0.0298   0.0823
   3 C1  :1s     0.1426  -0.9233
   4 C1  :2px   -0.0364  -0.0461
   5 C1  :2py    0.7748   0.0266
   6 C1  :2px   -0.1472   0.3489
   7 C1  :2py   -2.3746  -0.0796
   8 C2  :1s    -0.0055  -0.0504
   9 C2  :1s     0.5344   0.6489
  10 C2  :1s    -0.8037   0.1083
  11 C2  :2px   -0.2709  -0.7012
  12 C2  :2py   -0.4095   0.8842
  13 C2  :2px    0.5128   1.3383
  14 C2  :2py    2.4849  -0.8579
  15 O3  :1s     0.0216   0.0344
  16 O3  :1s    -0.0190  -0.1129
  17 O3  :1s    -0.8539   0.4061
  18 O3  :2px    0.0029  -0.2717
  19 O3  :2py   -0.0615   0.3330
  20 O3  :2px   -0.3627  -0.2441
  21 O3  :2py    0.0668   0.2338
  23 O7  :1s    -0.1085  -0.0346
  24 O7  :1s     1.2554  -0.0630
  25 O7  :2px   -0.1262   0.0985
  26 O7  :2py   -0.1350   0.1109
  27 O7  :2px    0.4404  -0.2027
  28 O7  :2py    0.4241   0.0598
  29 H4  :1s     0.2432   0.0846
  30 H4  :1s     0.8090   0.1135
  31 H5  :1s    -0.1150   0.0227
  32 H5  :1s    -0.4674  -0.0669
  33 H8  :1s     0.1542   0.0502
  34 H8  :1s     0.1948   0.1374

 Molecular orbitals for symmetry species 2  (A" )
 ------------------------------------------------

    Orbital         1        2        3        4        5        6        7
   1 C1  :2pz    0.3007   0.3401   0.0261   0.0045  -0.4367   0.3825  -0.7717
   2 C1  :2pz    0.1171   0.1924  -0.0135   0.1756  -1.3865  -0.6981   2.0168
   3 C2  :2pz    0.3153  -0.1893  -0.1310   0.5693   0.1649   0.8672   0.4862
   4 C2  :2pz    0.1642  -0.1318  -0.0657   0.4908   0.4093  -0.9075  -1.2419
   5 O3  :2pz    0.2214  -0.2281  -0.4391  -0.4028  -0.0738   0.1010   0.1112
   6 O3  :2pz    0.1169  -0.1374  -0.3136  -0.4073  -0.1401   0.0649   0.1618
   7 O7  :2pz    0.2470  -0.3138   0.4796  -0.2351  -0.1136   0.1038   0.1947
   8 O7  :2pz    0.1539  -0.2131   0.3749  -0.2392  -0.0989   0.0835   0.0403
   9 H5  :1s     0.1450   0.1932   0.0238  -0.1084   0.0753   0.2599  -0.2822
  10 H5  :1s     0.1084   0.1464   0.0555  -0.3410   1.5059   0.1876  -0.5515

    Orbital         8        9       10
   1 C1  :2pz   -0.5920   0.4695   0.1142
   2 C1  :2pz    0.5931  -0.8975   0.3433
   3 C2  :2pz   -0.0740  -0.0430   0.2058
   4 C2  :2pz    0.1545   0.3911  -1.1244
   5 O3  :2pz   -0.4221  -0.2524  -0.8091
   6 O3  :2pz    0.4151   0.2045   1.2701
   7 O7  :2pz    0.3647   0.7646  -0.3856
   8 O7  :2pz   -0.4457  -0.9823   0.7079
   9 H5  :1s     0.7197  -0.4373  -0.2546
  10 H5  :1s    -0.9976   0.9300   0.1641

  Total CPU  time used in SIRIUS :   7.41 seconds
  Total wall time used in SIRIUS :   7.41 seconds

 
     Date and time (Linux)  : Thu May  7 17:33:33 2026
     Host name              : debian                                  


                     .---------------------------------------.
                     | End of Wave Function Section (SIRIUS) |
                     `---------------------------------------'

  Total CPU  time used in DALTON:   7.47 seconds
  Total wall time used in DALTON:   7.47 seconds

 
     Date and time (Linux)  : Thu May  7 17:33:33 2026
     Host name              : debian                                  
