
    -----------------------------------------------------------------------
          Psi4: An Open-Source Ab Initio Electronic Structure Package
                               Psi4 1.10 release

                         Git: Rev {} zzzzzzz 


    D. G. A. Smith, L. A. Burns, A. C. Simmonett, R. M. Parrish,
    M. C. Schieber, R. Galvelis, P. Kraus, H. Kruse, R. Di Remigio,
    A. Alenaizan, A. M. James, S. Lehtola, J. P. Misiewicz, M. Scheurer,
    R. A. Shaw, J. B. Schriber, Y. Xie, Z. L. Glick, D. A. Sirianni,
    J. S. O'Brien, J. M. Waldrop, A. Kumar, E. G. Hohenstein,
    B. P. Pritchard, B. R. Brooks, H. F. Schaefer III, A. Yu. Sokolov,
    K. Patkowski, A. E. DePrince III, U. Bozkaya, R. A. King,
    F. A. Evangelista, J. M. Turney, T. D. Crawford, C. D. Sherrill,
    J. Chem. Phys. 152(18) 184108 (2020). https://doi.org/10.1063/5.0006002

                            Additional Code Authors
    E. T. Seidl, C. L. Janssen, E. F. Valeev, M. L. Leininger,
    J. F. Gonthier, R. M. Richard, H. R. McAlexander, M. Saitow, X. Wang,
    P. Verma, M. H. Lechner, A. Jiang, S. Behnle, A. G. Heide,
    M. F. Herbst, D. L. Poole, T. Győri, E. C. Mitchell, J. P. Pederson,
    and A. M. Wallace

             Previous Authors, Complete List of Code Contributors,
                       and Citations for Specific Modules
    https://github.com/psi4/psi4/blob/master/codemeta.json
    https://github.com/psi4/psi4/graphs/contributors
    https://psicode.org/psi4manual/master/introduction.html#citing-psifour

    -----------------------------------------------------------------------


    Psi4 started on: Thursday, 07 May 2026 05:28PM

    Process ID: 7970
    Host:       debian
    PSIDATADIR: /home/vdwv/DIPLOM_ITMO/CALCULATIONS_AND_SOFTS/softwares/Psi4_Shenanigans/psi4conda/share/psi4
    Memory:     500.0 MiB
    Threads:    1
    Addons:     adcc, a̶m̶b̶i̶t̶, b̶s̶e̶, c̶c̶t̶3̶, c̶f̶o̶u̶r̶, c̶h̶e̶m̶p̶s̶2̶, c̶p̶p̶e̶, ddx, dftd3, dftd4,
                dkh, ecpint, einsums, f̶o̶r̶t̶e̶, g̶a̶u̶x̶c̶, gcp, g̶d̶m̶a̶, geometric,
                g̶p̶u̶_̶d̶f̶c̶c̶, i̶n̶t̶e̶g̶r̶a̶t̶o̶r̶x̶x̶, i̶p̶i̶, libefp, m̶d̶i̶, m̶p̶2̶d̶,
                m̶r̶c̶c̶, ooo, o̶p̶e̶n̶f̶e̶r̶m̶i̶o̶n̶p̶s̶i̶4̶, pcmsolver, p̶s̶i̶4̶f̶o̶c̶k̶c̶i̶,
                p̶s̶i̶x̶a̶s̶, r̶e̶s̶p̶, s̶i̶m̶i̶n̶t̶, s̶n̶s̶m̶p̶2̶, v̶2̶r̶d̶m̶_̶c̶a̶s̶s̶c̶f̶

  ==> Input File <==

--------------------------------------------------------------------------
#! Sample DFT/6-31G CH3COOH computation

memory 600 mb

molecule ch3cooh {
  C1   1.134 -0.828  0.000
  C2   0.000  0.153  0.000
  O3   0.089  1.383  0.000
  H4   2.082 -0.291  0.000
  H5   1.072 -1.474  0.882
  H6   1.072 -1.474 -0.882
  O7  -1.224 -0.492  0.000
  H8  -1.953  0.166  0.000
  units angstrom
}


set basis 6-31G
energy('scf', dft_functional = 'b3lyp')

--------------------------------------------------------------------------

  Memory set to 572.205 MiB by Python driver.

Scratch directory: /tmp/
   => Libint2 <=

    Primary   basis highest AM E, G, H:  6, 6, 3
    Auxiliary basis highest AM E, G, H:  7, 7, 4
    Onebody   basis highest AM E, G, H:  -, -, -
    Solid Harmonics ordering:            Gaussian

*** tstart() called on debian
*** at Thu May  7 17:28:15 2026

   => Loading Basis Set <=

    Name: 6-31G
    Role: ORBITAL
    Keyword: BASIS
    atoms 1-2    entry C          line    87 file /home/vdwv/DIPLOM_ITMO/CALCULATIONS_AND_SOFTS/softwares/Psi4_Shenanigans/psi4conda/share/psi4/basis/6-31g.gbs 
    atoms 3, 7   entry O          line   117 file /home/vdwv/DIPLOM_ITMO/CALCULATIONS_AND_SOFTS/softwares/Psi4_Shenanigans/psi4conda/share/psi4/basis/6-31g.gbs 
    atoms 4-6, 8 entry H          line    26 file /home/vdwv/DIPLOM_ITMO/CALCULATIONS_AND_SOFTS/softwares/Psi4_Shenanigans/psi4conda/share/psi4/basis/6-31g.gbs 


         ---------------------------------------------------------
                                   SCF
               by Justin Turney, Rob Parrish, Andy Simmonett
                          and Daniel G. A. Smith
                              RKS Reference
                        1 Threads,    572 MiB Core
         ---------------------------------------------------------

  ==> Geometry <==

    Molecular point group: cs
    Full point group: Cs

    Geometry (in Angstrom), charge = 0, multiplicity = 1:

       Center              X                  Y                   Z               Mass       
    ------------   -----------------  -----------------  -----------------  -----------------
         C            1.171577463448    -0.878889122450     0.000000000000    12.000000000000
         C            0.037577463448     0.102110877550     0.000000000000    12.000000000000
         O            0.126577463448     1.332110877550     0.000000000000    15.994914619570
         H            2.119577463448    -0.341889122450     0.000000000000     1.007825032230
         H            1.109577463448    -1.524889122450     0.882000000000     1.007825032230
         H            1.109577463448    -1.524889122450    -0.882000000000     1.007825032230
         O           -1.186422536552    -0.542889122450     0.000000000000    15.994914619570
         H           -1.915422536552     0.115110877550     0.000000000000     1.007825032230

  Running in cs symmetry.

  Rotational constants: A =      0.36410  B =      0.31153  C =      0.17330 [cm^-1]
  Rotational constants: A =  10915.46593  B =   9339.43172  C =   5195.32627 [MHz]
  Nuclear repulsion =  119.489484502647684

  Charge       = 0
  Multiplicity = 1
  Electrons    = 32
  Nalpha       = 16
  Nbeta        = 16

  ==> Algorithm <==

  SCF Algorithm Type is DF.
  DIIS enabled.
  MOM disabled.
  Fractional occupation disabled.
  Guess Type is SAD.
  Energy threshold   = 1.00e-06
  Density threshold  = 1.00e-06
  Integral threshold = 1.00e-12

  ==> Primary Basis <==

  Basis Set: 6-31G
    Blend: 6-31G
    Number of shells: 28
    Number of basis functions: 44
    Number of Cartesian functions: 44
    Spherical Harmonics?: false
    Max angular momentum: 1

  ==> DFT Potential <==

   => LibXC <=

    Version 7.0.0
    S. Lehtola, C. Steigemann, M. J.T. Oliveira, and M. A.L. Marques.,  SoftwareX 7, 1–5 (2018) (10.1016/j.softx.2017.11.002)

   => Composite Functional: B3LYP <= 

    B3LYP Hyb-GGA Exchange-Correlation Functional

    P. J. Stephens, F. J. Devlin, C. F. Chabalowski, and M. J. Frisch.,  J. Phys. Chem. 98, 11623 (1994) (10.1021/j100096a001)

    Deriv               =              1
    GGA                 =           TRUE
    Meta                =          FALSE

    Exchange Hybrid     =           TRUE
    MP2 Hybrid          =          FALSE

   => Exchange Functionals <=

    0.0800   Slater exchange
    0.7200         Becke 88

   => Exact (HF) Exchange <=

    0.2000               HF 

   => Correlation Functionals <=

    0.1900   Vosko, Wilk & Nusair (VWN5_RPA)
    0.8100   Lee, Yang & Parr

   => LibXC Density Thresholds  <==

    XC_HYB_GGA_XC_B3LYP:  1.00E-15 

   => Molecular Quadrature <=

    Radial Scheme          =       TREUTLER
    Pruning Scheme         =           NONE
    Nuclear Scheme         =       TREUTLER

    Blocking Scheme        =         OCTREE
    BS radius alpha        =              1
    Pruning alpha          =              1
    Radial Points          =             75
    Spherical Points       =            302
    Total Points           =         171441
    Total Blocks           =           1332
    Max Points             =            256
    Max Functions          =             44
    Weights Tolerance      =       1.00E-15

   => Loading Basis Set <=

    Name: (6-31G AUX)
    Role: JKFIT
    Keyword: DF_BASIS_SCF
    atoms 1-2    entry C          line   121 file /home/vdwv/DIPLOM_ITMO/CALCULATIONS_AND_SOFTS/softwares/Psi4_Shenanigans/psi4conda/share/psi4/basis/cc-pvdz-jkfit.gbs 
    atoms 3, 7   entry O          line   221 file /home/vdwv/DIPLOM_ITMO/CALCULATIONS_AND_SOFTS/softwares/Psi4_Shenanigans/psi4conda/share/psi4/basis/cc-pvdz-jkfit.gbs 
    atoms 4-6, 8 entry H          line    51 file /home/vdwv/DIPLOM_ITMO/CALCULATIONS_AND_SOFTS/softwares/Psi4_Shenanigans/psi4conda/share/psi4/basis/cc-pvdz-jkfit.gbs 

  ==> Integral Setup <==

  DFHelper Memory: AOs need 0.008 GiB; user supplied 0.227 GiB. 
  SCF_SUBTYPE=INCORE selected. In-core MEM_DF algorithm will be used.
  Using in-core AOs.

  ==> MemDFJK: Density-Fitted J/K Matrices <==

    J tasked:                   Yes
    K tasked:                   Yes
    wK tasked:                   No
    OpenMP threads:               1
    Memory [MiB]:               232
    Algorithm:                 Core
    Schwarz Cutoff:           1E-12
    Mask sparsity (%):       0.3099
    Fitting Condition:        1E-10

   => Auxiliary Basis Set <=

  Basis Set: (6-31G AUX)
    Blend: CC-PVDZ-JKFIT
    Number of shells: 132
    Number of basis functions: 424
    Number of Cartesian functions: 424
    Spherical Harmonics?: false
    Max angular momentum: 3

  Cached 100.0% of DFT collocation blocks in 0.192 [GiB].

  Minimum eigenvalue in the overlap matrix is 7.7204915149E-03.
  Reciprocal condition number of the overlap matrix is 1.7441924375E-03.
    Using symmetric orthogonalization.

  ==> Pre-Iterations <==

  SCF Guess: Superposition of Atomic Densities via on-the-fly atomic UHF (no occupation information).

   -------------------------
    Irrep   Nso     Nmo    
   -------------------------
     A'        34      34 
     A"        10      10 
   -------------------------
    Total      44      44
   -------------------------

  ==> Iterations <==

                           Total Energy        Delta E     RMS |[F,P]|

   @DF-RKS iter SAD:  -226.90941169478410   -2.26909e+02   0.00000e+00 
   @DF-RKS iter   1:  -225.27121339839624    1.63820e+00   6.15309e-02 DIIS/ADIIS
   @DF-RKS iter   2:  -220.00747321521052    5.26374e+00   1.09363e-01 ADIIS
   @DF-RKS iter   3:  -228.17399217895962   -8.16652e+00   3.84410e-02 DIIS/ADIIS
   @DF-RKS iter   4:  -228.00841389029981    1.65578e-01   4.28418e-02 DIIS/ADIIS
   @DF-RKS iter   5:  -228.96340462543796   -9.54991e-01   8.95258e-03 DIIS/ADIIS
   @DF-RKS iter   6:  -228.99102501941334   -2.76204e-02   5.59702e-03 DIIS/ADIIS
   @DF-RKS iter   7:  -229.00529632697251   -1.42713e-02   6.87237e-04 DIIS/ADIIS
   @DF-RKS iter   8:  -229.00558448896112   -2.88162e-04   1.63345e-04 DIIS/ADIIS
   @DF-RKS iter   9:  -229.00560003433179   -1.55454e-05   6.07260e-05 DIIS
   @DF-RKS iter  10:  -229.00560222230212   -2.18797e-06   6.07067e-06 DIIS
   @DF-RKS iter  11:  -229.00560224265038   -2.03483e-08   6.91064e-07 DIIS
  Energy and wave function converged.


  ==> Post-Iterations <==

   Electrons on quadrature grid:
      Ntotal   =   31.9999871093 ; deviation = -1.289e-05 

    Orbital Energies [Eh]
    ---------------------

    Doubly Occupied:                                                      

       1Ap   -19.195510     2Ap   -19.150491     3Ap   -10.337354  
       4Ap   -10.200793     5Ap    -1.115532     6Ap    -1.028976  
       7Ap    -0.769937     8Ap    -0.620483     9Ap    -0.496216  
       1App   -0.473483    10Ap    -0.469763    11Ap    -0.417368  
       2App   -0.394111    12Ap    -0.387666     3App   -0.320205  
      13Ap    -0.281118  

    Virtual:                                                              

       4App   -0.010444    14Ap     0.062249    15Ap     0.111679  
      16Ap     0.152217     5App    0.164865    17Ap     0.198677  
      18Ap     0.267886    19Ap     0.319021     6App    0.524861  
      20Ap     0.567185    21Ap     0.589354    22Ap     0.623805  
       7App    0.626661    23Ap     0.664299    24Ap     0.767858  
      25Ap     0.817015     8App    0.880439    26Ap     0.924630  
       9App    0.936478    27Ap     0.949646    28Ap     0.955926  
      29Ap     1.028260    10App    1.040046    30Ap     1.110086  
      31Ap     1.184396    32Ap     1.393793    33Ap     1.727321  
      34Ap     1.821731  

    Final Occupation by Irrep:
             Ap   App 
    DOCC [    13,    3 ]
    NA   [    13,    3 ]
    NB   [    13,    3 ]

  @DF-RKS Final Energy:  -229.00560224265038

   => Energetics <=

    Nuclear Repulsion Energy =            119.4894845026476844
    One-Electron Energy =                -548.5321852002144851
    Two-Electron Energy =                 223.8948790420718922
    DFT Exchange-Correlation Energy =     -23.8577805871554354
    Empirical Dispersion Energy =           0.0000000000000000
    VV10 Nonlocal Energy =                  0.0000000000000000
    Total Energy =                       -229.0056022426503830

Computation Completed


Properties will be evaluated at   0.000000,   0.000000,   0.000000 [a0]

Properties computed using the SCF density matrix


 Multipole Moments:

 ------------------------------------------------------------------------------------
     Multipole            Electronic (a.u.)      Nuclear  (a.u.)        Total (a.u.)
 ------------------------------------------------------------------------------------

 L = 1.  Multiply by 2.5417464519 to convert [e a0] to [Debye]
 Dipole X            :         -2.3511045            2.2666865           -0.0844180
 Dipole Y            :          2.4323427           -3.0678795           -0.6355368
 Dipole Z            :          0.0000000            0.0000000            0.0000000
 Magnitude           :                                                    0.6411189

 ------------------------------------------------------------------------------------

*** tstop() called on debian at Thu May  7 17:28:19 2026
Module time:
	user time   =       4.20 seconds =       0.07 minutes
	system time =       0.20 seconds =       0.00 minutes
	total time  =          4 seconds =       0.07 minutes
Total time:
	user time   =       4.20 seconds =       0.07 minutes
	system time =       0.20 seconds =       0.00 minutes
	total time  =          4 seconds =       0.07 minutes

    Psi4 stopped on: Thursday, 07 May 2026 05:28PM
    Psi4 wall time for execution: 0:00:04.46

*** Psi4 exiting successfully. Buy a developer a beer!
