
    -----------------------------------------------------------------------
          Psi4: An Open-Source Ab Initio Electronic Structure Package
                               Psi4 1.10 release

                         Git: Rev {} zzzzzzz 


    D. G. A. Smith, L. A. Burns, A. C. Simmonett, R. M. Parrish,
    M. C. Schieber, R. Galvelis, P. Kraus, H. Kruse, R. Di Remigio,
    A. Alenaizan, A. M. James, S. Lehtola, J. P. Misiewicz, M. Scheurer,
    R. A. Shaw, J. B. Schriber, Y. Xie, Z. L. Glick, D. A. Sirianni,
    J. S. O'Brien, J. M. Waldrop, A. Kumar, E. G. Hohenstein,
    B. P. Pritchard, B. R. Brooks, H. F. Schaefer III, A. Yu. Sokolov,
    K. Patkowski, A. E. DePrince III, U. Bozkaya, R. A. King,
    F. A. Evangelista, J. M. Turney, T. D. Crawford, C. D. Sherrill,
    J. Chem. Phys. 152(18) 184108 (2020). https://doi.org/10.1063/5.0006002

                            Additional Code Authors
    E. T. Seidl, C. L. Janssen, E. F. Valeev, M. L. Leininger,
    J. F. Gonthier, R. M. Richard, H. R. McAlexander, M. Saitow, X. Wang,
    P. Verma, M. H. Lechner, A. Jiang, S. Behnle, A. G. Heide,
    M. F. Herbst, D. L. Poole, T. Győri, E. C. Mitchell, J. P. Pederson,
    and A. M. Wallace

             Previous Authors, Complete List of Code Contributors,
                       and Citations for Specific Modules
    https://github.com/psi4/psi4/blob/master/codemeta.json
    https://github.com/psi4/psi4/graphs/contributors
    https://psicode.org/psi4manual/master/introduction.html#citing-psifour

    -----------------------------------------------------------------------


    Psi4 started on: Tuesday, 05 May 2026 10:07AM

    Process ID: 11183
    Host:       debian
    PSIDATADIR: /home/vdwv/DIPLOM_ITMO/CALCULATIONS_AND_SOFTS/softwares/Psi4_Shenanigans/psi4conda/share/psi4
    Memory:     500.0 MiB
    Threads:    1
    Addons:     adcc, a̶m̶b̶i̶t̶, b̶s̶e̶, c̶c̶t̶3̶, c̶f̶o̶u̶r̶, c̶h̶e̶m̶p̶s̶2̶, c̶p̶p̶e̶, ddx, dftd3, dftd4,
                dkh, ecpint, einsums, f̶o̶r̶t̶e̶, g̶a̶u̶x̶c̶, gcp, g̶d̶m̶a̶, geometric,
                g̶p̶u̶_̶d̶f̶c̶c̶, i̶n̶t̶e̶g̶r̶a̶t̶o̶r̶x̶x̶, i̶p̶i̶, libefp, m̶d̶i̶, m̶p̶2̶d̶,
                m̶r̶c̶c̶, ooo, o̶p̶e̶n̶f̶e̶r̶m̶i̶o̶n̶p̶s̶i̶4̶, pcmsolver, p̶s̶i̶4̶f̶o̶c̶k̶c̶i̶,
                p̶s̶i̶x̶a̶s̶, r̶e̶s̶p̶, s̶i̶m̶i̶n̶t̶, s̶n̶s̶m̶p̶2̶, v̶2̶r̶d̶m̶_̶c̶a̶s̶s̶c̶f̶

  ==> Input File <==

--------------------------------------------------------------------------
#! Sample DFT/3-21G C6H6 computation

memory 600 mb

molecule c6h6 {
  C1   0.000  1.397  0.000
  C2   1.210  0.699  0.000
  C3   1.210 -0.699  0.000
  C4   0.000 -1.397  0.000
  C5  -1.210 -0.699  0.000
  C6  -1.210  0.699  0.000

  H7   0.000  2.481  0.000
  H8   2.149  1.241  0.000
  H9   2.149 -1.241  0.000
  H10  0.000 -2.481  0.000
  H11 -2.149 -1.241  0.000
  H12 -2.149  1.241  0.000

  units angstrom
}


set basis 3-21G
energy('scf', dft_functional = 'b3lyp')

--------------------------------------------------------------------------

  Memory set to 572.205 MiB by Python driver.

Scratch directory: /tmp/
   => Libint2 <=

    Primary   basis highest AM E, G, H:  6, 6, 3
    Auxiliary basis highest AM E, G, H:  7, 7, 4
    Onebody   basis highest AM E, G, H:  -, -, -
    Solid Harmonics ordering:            Gaussian

*** tstart() called on debian
*** at Tue May  5 10:07:48 2026

   => Loading Basis Set <=

    Name: 3-21G
    Role: ORBITAL
    Keyword: BASIS
    atoms 1-6  entry C          line    68 file /home/vdwv/DIPLOM_ITMO/CALCULATIONS_AND_SOFTS/softwares/Psi4_Shenanigans/psi4conda/share/psi4/basis/3-21g.gbs 
    atoms 7-12 entry H          line    21 file /home/vdwv/DIPLOM_ITMO/CALCULATIONS_AND_SOFTS/softwares/Psi4_Shenanigans/psi4conda/share/psi4/basis/3-21g.gbs 


         ---------------------------------------------------------
                                   SCF
               by Justin Turney, Rob Parrish, Andy Simmonett
                          and Daniel G. A. Smith
                              RKS Reference
                        1 Threads,    572 MiB Core
         ---------------------------------------------------------

  ==> Geometry <==

    Molecular point group: d2h
    Full point group: D2h

    Geometry (in Angstrom), charge = 0, multiplicity = 1:

       Center              X                  Y                   Z               Mass       
    ------------   -----------------  -----------------  -----------------  -----------------
         C           -0.000000000000     1.397000000000     0.000000000000    12.000000000000
         C            1.210000000000     0.699000000000     0.000000000000    12.000000000000
         C            1.210000000000    -0.699000000000     0.000000000000    12.000000000000
         C            0.000000000000    -1.397000000000     0.000000000000    12.000000000000
         C           -1.210000000000    -0.699000000000     0.000000000000    12.000000000000
         C           -1.210000000000     0.699000000000     0.000000000000    12.000000000000
         H           -0.000000000000     2.481000000000     0.000000000000     1.007825032230
         H            2.149000000000     1.241000000000     0.000000000000     1.007825032230
         H            2.149000000000    -1.241000000000     0.000000000000     1.007825032230
         H            0.000000000000    -2.481000000000     0.000000000000     1.007825032230
         H           -2.149000000000    -1.241000000000     0.000000000000     1.007825032230
         H           -2.149000000000     1.241000000000     0.000000000000     1.007825032230

  Running in d2h symmetry.

  Rotational constants: A =      0.18964  B =      0.18961  C =      0.09481 [cm^-1]
  Rotational constants: A =   5685.17708  B =   5684.35269  C =   2842.38243 [MHz]
  Nuclear repulsion =  203.188440151159455

  Charge       = 0
  Multiplicity = 1
  Electrons    = 42
  Nalpha       = 21
  Nbeta        = 21

  ==> Algorithm <==

  SCF Algorithm Type is DF.
  DIIS enabled.
  MOM disabled.
  Fractional occupation disabled.
  Guess Type is SAD.
  Energy threshold   = 1.00e-06
  Density threshold  = 1.00e-06
  Integral threshold = 1.00e-12

  ==> Primary Basis <==

  Basis Set: 3-21G
    Blend: 3-21G
    Number of shells: 42
    Number of basis functions: 66
    Number of Cartesian functions: 66
    Spherical Harmonics?: false
    Max angular momentum: 1

  ==> DFT Potential <==

   => LibXC <=

    Version 7.0.0
    S. Lehtola, C. Steigemann, M. J.T. Oliveira, and M. A.L. Marques.,  SoftwareX 7, 1–5 (2018) (10.1016/j.softx.2017.11.002)

   => Composite Functional: B3LYP <= 

    B3LYP Hyb-GGA Exchange-Correlation Functional

    P. J. Stephens, F. J. Devlin, C. F. Chabalowski, and M. J. Frisch.,  J. Phys. Chem. 98, 11623 (1994) (10.1021/j100096a001)

    Deriv               =              1
    GGA                 =           TRUE
    Meta                =          FALSE

    Exchange Hybrid     =           TRUE
    MP2 Hybrid          =          FALSE

   => Exchange Functionals <=

    0.0800   Slater exchange
    0.7200         Becke 88

   => Exact (HF) Exchange <=

    0.2000               HF 

   => Correlation Functionals <=

    0.1900   Vosko, Wilk & Nusair (VWN5_RPA)
    0.8100   Lee, Yang & Parr

   => LibXC Density Thresholds  <==

    XC_HYB_GGA_XC_B3LYP:  1.00E-15 

   => Molecular Quadrature <=

    Radial Scheme          =       TREUTLER
    Pruning Scheme         =           NONE
    Nuclear Scheme         =       TREUTLER

    Blocking Scheme        =         OCTREE
    BS radius alpha        =              1
    Pruning alpha          =              1
    Radial Points          =             75
    Spherical Points       =            302
    Total Points           =         251990
    Total Blocks           =           1964
    Max Points             =            255
    Max Functions          =             63
    Weights Tolerance      =       1.00E-15

   => Loading Basis Set <=

    Name: (3-21G AUX)
    Role: JKFIT
    Keyword: DF_BASIS_SCF
    atoms 1-6  entry C          line   198 file /home/vdwv/DIPLOM_ITMO/CALCULATIONS_AND_SOFTS/softwares/Psi4_Shenanigans/psi4conda/share/psi4/basis/def2-universal-jkfit.gbs 
    atoms 7-12 entry H          line    18 file /home/vdwv/DIPLOM_ITMO/CALCULATIONS_AND_SOFTS/softwares/Psi4_Shenanigans/psi4conda/share/psi4/basis/def2-universal-jkfit.gbs 

  ==> Integral Setup <==

  DFHelper Memory: AOs need 0.026 GiB; user supplied 0.033 GiB. 
  SCF_SUBTYPE=INCORE selected. In-core MEM_DF algorithm will be used.
  Using in-core AOs.

  ==> MemDFJK: Density-Fitted J/K Matrices <==

    J tasked:                   Yes
    K tasked:                   Yes
    wK tasked:                   No
    OpenMP threads:               1
    Memory [MiB]:                33
    Algorithm:                 Core
    Schwarz Cutoff:           1E-12
    Mask sparsity (%):       1.3774
    Fitting Condition:        1E-10

   => Auxiliary Basis Set <=

  Basis Set: (3-21G AUX)
    Blend: DEF2-UNIVERSAL-JKFIT
    Number of shells: 186
    Number of basis functions: 654
    Number of Cartesian functions: 654
    Spherical Harmonics?: false
    Max angular momentum: 4

  Cached 100.0% of DFT collocation blocks in 0.387 [GiB].

  Minimum eigenvalue in the overlap matrix is 2.5262255292E-03.
  Reciprocal condition number of the overlap matrix is 5.4519422509E-04.
    Using symmetric orthogonalization.

  ==> Pre-Iterations <==

  SCF Guess: Superposition of Atomic Densities via on-the-fly atomic UHF (no occupation information).

   -------------------------
    Irrep   Nso     Nmo    
   -------------------------
     Ag        16      16 
     B1g       11      11 
     B2g        2       2 
     B3g        4       4 
     Au         2       2 
     B1u        4       4 
     B2u       16      16 
     B3u       11      11 
   -------------------------
    Total      66      66
   -------------------------

  ==> Iterations <==

                           Total Energy        Delta E     RMS |[F,P]|

   @DF-RKS iter SAD:  -220.38657153533751   -2.20387e+02   0.00000e+00 
    Occupation by irrep:
             Ag   B1g   B2g   B3g    Au   B1u   B2u   B3u 
    DOCC [     5,    3,    1,    1,    1,    1,    5,    4 ]
    NA   [     5,    3,    1,    1,    1,    1,    5,    4 ]
    NB   [     5,    3,    1,    1,    1,    1,    5,    4 ]

   @DF-RKS iter   1:  -215.93651977988398    4.45005e+00   1.37597e-01 ADIIS
    Occupation by irrep:
             Ag   B1g   B2g   B3g    Au   B1u   B2u   B3u 
    DOCC [     6,    3,    1,    1,    0,    1,    5,    4 ]
    NA   [     6,    3,    1,    1,    0,    1,    5,    4 ]
    NB   [     6,    3,    1,    1,    0,    1,    5,    4 ]

   @DF-RKS iter   2:  -221.62782752377259   -5.69131e+00   1.24994e-01 ADIIS
   @DF-RKS iter   3:  -229.94799780170825   -8.32017e+00   5.04010e-02 ADIIS/DIIS
   @DF-RKS iter   4:  -230.17693816862857   -2.28940e-01   4.27507e-02 ADIIS/DIIS
   @DF-RKS iter   5:  -230.97456584399993   -7.97628e-01   1.79539e-03 ADIIS/DIIS
   @DF-RKS iter   6:  -230.97589692071708   -1.33108e-03   1.59125e-04 ADIIS/DIIS
   @DF-RKS iter   7:  -230.97591044937590   -1.35287e-05   1.64455e-05 DIIS
   @DF-RKS iter   8:  -230.97591056800459   -1.18629e-07   4.15261e-06 DIIS
   @DF-RKS iter   9:  -230.97591057634861   -8.34402e-09   2.54626e-07 DIIS
  Energy and wave function converged.


  ==> Post-Iterations <==

   Electrons on quadrature grid:
      Ntotal   =   42.0000413925 ; deviation = 4.139e-05 

    Orbital Energies [Eh]
    ---------------------

    Doubly Occupied:                                                      

       1B2u  -10.128343     1B1g  -10.127732     1Ag   -10.127657  
       1B3u  -10.126596     2B2u  -10.126518     2Ag   -10.125506  
       3Ag    -0.855538     3B2u   -0.746348     2B3u   -0.746092  
       2B1g   -0.604916     4Ag    -0.604687     5Ag    -0.528376  
       4B2u   -0.460641     3B3u   -0.452730     5B2u   -0.426206  
       4B3u   -0.426067     1B1u   -0.366219     3B1g   -0.346346  
       6Ag    -0.345959     1B3g   -0.251186     1B2g   -0.250947  

    Virtual:                                                              

       1Au     0.005119     2B1u    0.005444     7Ag     0.106538  
       6B2u    0.164316     5B3u    0.164370     2B3g    0.165572  
       4B1g    0.206516     8Ag     0.206653     7B2u    0.212629  
       5B1g    0.324409     9Ag     0.324826     8B2u    0.336997  
       6B3u    0.337545     9B2u    0.576970     6B1g    0.577697  
       7B3u    0.667184    10Ag     0.689415     3B1u    0.695976  
       7B1g    0.738631    11Ag     0.739273     3B3g    0.787313  
       2B2g    0.787391    10B2u    0.804582     8B3u    0.804887  
       2Au     0.832452     4B1u    0.832521    12Ag     0.884108  
       4B3g    0.906440    11B2u    0.971346     8B1g    1.010039  
      13Ag     1.010266     9B1g    1.109175    12B2u    1.115199  
       9B3u    1.115325    13B2u    1.300732    10B3u    1.301070  
      14Ag     1.328774    14B2u    1.452109    10B1g    1.465590  
      15Ag     1.465907    15B2u    1.546321    11B3u    1.546766  
      11B1g    1.889924    16Ag     1.890466    16B2u    2.474409  

    Final Occupation by Irrep:
             Ag   B1g   B2g   B3g    Au   B1u   B2u   B3u 
    DOCC [     6,    3,    1,    1,    0,    1,    5,    4 ]
    NA   [     6,    3,    1,    1,    0,    1,    5,    4 ]
    NB   [     6,    3,    1,    1,    0,    1,    5,    4 ]

  @DF-RKS Final Energy:  -230.97591057634861

   => Energetics <=

    Nuclear Repulsion Energy =            203.1884401511594547
    One-Electron Energy =                -711.8077820240717983
    Two-Electron Energy =                 305.6933864888874268
    DFT Exchange-Correlation Energy =     -28.0499551923237078
    Empirical Dispersion Energy =           0.0000000000000000
    VV10 Nonlocal Energy =                  0.0000000000000000
    Total Energy =                       -230.9759105763486104

Computation Completed


Properties will be evaluated at   0.000000,   0.000000,   0.000000 [a0]

Properties computed using the SCF density matrix


 Multipole Moments:

 ------------------------------------------------------------------------------------
     Multipole            Electronic (a.u.)      Nuclear  (a.u.)        Total (a.u.)
 ------------------------------------------------------------------------------------

 L = 1.  Multiply by 2.5417464519 to convert [e a0] to [Debye]
 Dipole X            :          0.0000000            0.0000000            0.0000000
 Dipole Y            :          0.0000000            0.0000000            0.0000000
 Dipole Z            :          0.0000000            0.0000000            0.0000000
 Magnitude           :                                                    0.0000000

 ------------------------------------------------------------------------------------

*** tstop() called on debian at Tue May  5 10:07:58 2026
Module time:
	user time   =       9.99 seconds =       0.17 minutes
	system time =       0.57 seconds =       0.01 minutes
	total time  =         10 seconds =       0.17 minutes
Total time:
	user time   =       9.99 seconds =       0.17 minutes
	system time =       0.57 seconds =       0.01 minutes
	total time  =         10 seconds =       0.17 minutes

    Psi4 stopped on: Tuesday, 05 May 2026 10:07AM
    Psi4 wall time for execution: 0:00:10.72

*** Psi4 exiting successfully. Buy a developer a beer!
