
    -----------------------------------------------------------------------
          Psi4: An Open-Source Ab Initio Electronic Structure Package
                               Psi4 1.10 release

                         Git: Rev {} zzzzzzz 


    D. G. A. Smith, L. A. Burns, A. C. Simmonett, R. M. Parrish,
    M. C. Schieber, R. Galvelis, P. Kraus, H. Kruse, R. Di Remigio,
    A. Alenaizan, A. M. James, S. Lehtola, J. P. Misiewicz, M. Scheurer,
    R. A. Shaw, J. B. Schriber, Y. Xie, Z. L. Glick, D. A. Sirianni,
    J. S. O'Brien, J. M. Waldrop, A. Kumar, E. G. Hohenstein,
    B. P. Pritchard, B. R. Brooks, H. F. Schaefer III, A. Yu. Sokolov,
    K. Patkowski, A. E. DePrince III, U. Bozkaya, R. A. King,
    F. A. Evangelista, J. M. Turney, T. D. Crawford, C. D. Sherrill,
    J. Chem. Phys. 152(18) 184108 (2020). https://doi.org/10.1063/5.0006002

                            Additional Code Authors
    E. T. Seidl, C. L. Janssen, E. F. Valeev, M. L. Leininger,
    J. F. Gonthier, R. M. Richard, H. R. McAlexander, M. Saitow, X. Wang,
    P. Verma, M. H. Lechner, A. Jiang, S. Behnle, A. G. Heide,
    M. F. Herbst, D. L. Poole, T. Győri, E. C. Mitchell, J. P. Pederson,
    and A. M. Wallace

             Previous Authors, Complete List of Code Contributors,
                       and Citations for Specific Modules
    https://github.com/psi4/psi4/blob/master/codemeta.json
    https://github.com/psi4/psi4/graphs/contributors
    https://psicode.org/psi4manual/master/introduction.html#citing-psifour

    -----------------------------------------------------------------------


    Psi4 started on: Tuesday, 05 May 2026 08:42AM

    Process ID: 7069
    Host:       debian
    PSIDATADIR: /home/vdwv/DIPLOM_ITMO/CALCULATIONS_AND_SOFTS/softwares/Psi4_Shenanigans/psi4conda/share/psi4
    Memory:     500.0 MiB
    Threads:    1
    Addons:     adcc, a̶m̶b̶i̶t̶, b̶s̶e̶, c̶c̶t̶3̶, c̶f̶o̶u̶r̶, c̶h̶e̶m̶p̶s̶2̶, c̶p̶p̶e̶, ddx, dftd3, dftd4,
                dkh, ecpint, einsums, f̶o̶r̶t̶e̶, g̶a̶u̶x̶c̶, gcp, g̶d̶m̶a̶, geometric,
                g̶p̶u̶_̶d̶f̶c̶c̶, i̶n̶t̶e̶g̶r̶a̶t̶o̶r̶x̶x̶, i̶p̶i̶, libefp, m̶d̶i̶, m̶p̶2̶d̶,
                m̶r̶c̶c̶, ooo, o̶p̶e̶n̶f̶e̶r̶m̶i̶o̶n̶p̶s̶i̶4̶, pcmsolver, p̶s̶i̶4̶f̶o̶c̶k̶c̶i̶,
                p̶s̶i̶x̶a̶s̶, r̶e̶s̶p̶, s̶i̶m̶i̶n̶t̶, s̶n̶s̶m̶p̶2̶, v̶2̶r̶d̶m̶_̶c̶a̶s̶s̶c̶f̶

  ==> Input File <==

--------------------------------------------------------------------------
#! Sample HF/6-31G CCl2O computation

memory 600 mb

molecule ccl2o {
  O1   0.000  0.000  1.680
  C2   0.000  0.000  0.505
  Cl3  0.000  1.496 -0.484
  Cl4  0.000 -1.496 -0.484
  units angstrom
}


set basis 6-31G
energy('scf')

--------------------------------------------------------------------------

  Memory set to 572.205 MiB by Python driver.

Scratch directory: /tmp/
   => Libint2 <=

    Primary   basis highest AM E, G, H:  6, 6, 3
    Auxiliary basis highest AM E, G, H:  7, 7, 4
    Onebody   basis highest AM E, G, H:  -, -, -
    Solid Harmonics ordering:            Gaussian

*** tstart() called on debian
*** at Tue May  5 08:42:39 2026

   => Loading Basis Set <=

    Name: 6-31G
    Role: ORBITAL
    Keyword: BASIS
    atoms 1   entry O          line   117 file /home/vdwv/DIPLOM_ITMO/CALCULATIONS_AND_SOFTS/softwares/Psi4_Shenanigans/psi4conda/share/psi4/basis/6-31g.gbs 
    atoms 2   entry C          line    87 file /home/vdwv/DIPLOM_ITMO/CALCULATIONS_AND_SOFTS/softwares/Psi4_Shenanigans/psi4conda/share/psi4/basis/6-31g.gbs 
    atoms 3-4 entry CL         line   294 file /home/vdwv/DIPLOM_ITMO/CALCULATIONS_AND_SOFTS/softwares/Psi4_Shenanigans/psi4conda/share/psi4/basis/6-31g.gbs 


         ---------------------------------------------------------
                                   SCF
               by Justin Turney, Rob Parrish, Andy Simmonett
                          and Daniel G. A. Smith
                              RHF Reference
                        1 Threads,    572 MiB Core
         ---------------------------------------------------------

  ==> Geometry <==

    Molecular point group: c2v
    Full point group: C2v

    Geometry (in Angstrom), charge = 0, multiplicity = 1:

       Center              X                  Y                   Z               Mass       
    ------------   -----------------  -----------------  -----------------  -----------------
         O            0.000000000000     0.000000000000     1.689377803182    15.994914619570
         C            0.000000000000     0.000000000000     0.514377803182    12.000000000000
         CL          -0.000000000000     1.496000000000    -0.474622196818    34.968852682000
         CL           0.000000000000    -1.496000000000    -0.474622196818    34.968852682000

  Running in c2v symmetry.

  Rotational constants: A =      0.26104  B =      0.10770  C =      0.07624 [cm^-1]
  Rotational constants: A =   7825.74098  B =   3228.81107  C =   2285.74066 [MHz]
  Nuclear repulsion =  187.639388865301328

  Charge       = 0
  Multiplicity = 1
  Electrons    = 48
  Nalpha       = 24
  Nbeta        = 24

  ==> Algorithm <==

  SCF Algorithm Type is DF.
  DIIS enabled.
  MOM disabled.
  Fractional occupation disabled.
  Guess Type is SAD.
  Energy threshold   = 1.00e-06
  Density threshold  = 1.00e-06
  Integral threshold = 1.00e-12

  ==> Primary Basis <==

  Basis Set: 6-31G
    Blend: 6-31G
    Number of shells: 24
    Number of basis functions: 44
    Number of Cartesian functions: 44
    Spherical Harmonics?: false
    Max angular momentum: 1

   => Loading Basis Set <=

    Name: (6-31G AUX)
    Role: JKFIT
    Keyword: DF_BASIS_SCF
    atoms 1   entry O          line   221 file /home/vdwv/DIPLOM_ITMO/CALCULATIONS_AND_SOFTS/softwares/Psi4_Shenanigans/psi4conda/share/psi4/basis/cc-pvdz-jkfit.gbs 
    atoms 2   entry C          line   121 file /home/vdwv/DIPLOM_ITMO/CALCULATIONS_AND_SOFTS/softwares/Psi4_Shenanigans/psi4conda/share/psi4/basis/cc-pvdz-jkfit.gbs 
    atoms 3-4 entry CL         line   667 file /home/vdwv/DIPLOM_ITMO/CALCULATIONS_AND_SOFTS/softwares/Psi4_Shenanigans/psi4conda/share/psi4/basis/cc-pvdz-jkfit.gbs 

  ==> Integral Setup <==

  DFHelper Memory: AOs need 0.008 GiB; user supplied 0.419 GiB. 
  SCF_SUBTYPE=INCORE selected. In-core MEM_DF algorithm will be used.
  Using in-core AOs.

  ==> MemDFJK: Density-Fitted J/K Matrices <==

    J tasked:                   Yes
    K tasked:                   Yes
    wK tasked:                   No
    OpenMP threads:               1
    Memory [MiB]:               429
    Algorithm:                 Core
    Schwarz Cutoff:           1E-12
    Mask sparsity (%):       3.8223
    Fitting Condition:        1E-10

   => Auxiliary Basis Set <=

  Basis Set: (6-31G AUX)
    Blend: CC-PVDZ-JKFIT
    Number of shells: 120
    Number of basis functions: 422
    Number of Cartesian functions: 422
    Spherical Harmonics?: false
    Max angular momentum: 3

  Minimum eigenvalue in the overlap matrix is 1.6918138747E-02.
  Reciprocal condition number of the overlap matrix is 4.6167345882E-03.
    Using symmetric orthogonalization.

  ==> Pre-Iterations <==

  SCF Guess: Superposition of Atomic Densities via on-the-fly atomic UHF (no occupation information).

   -------------------------
    Irrep   Nso     Nmo    
   -------------------------
     A1        20      20 
     A2         3       3 
     B1         7       7 
     B2        14      14 
   -------------------------
    Total      44      44
   -------------------------

  ==> Iterations <==

                           Total Energy        Delta E     RMS |[F,P]|

   @DF-RHF iter SAD: -1032.78732512659531   -1.03279e+03   0.00000e+00 
   @DF-RHF iter   1: -1030.80106823905544    1.98626e+00   4.10079e-02 ADIIS/DIIS
   @DF-RHF iter   2: -1031.35585467801775   -5.54786e-01   2.38282e-02 ADIIS/DIIS
   @DF-RHF iter   3: -1031.54816391129771   -1.92309e-01   5.35548e-03 ADIIS/DIIS
   @DF-RHF iter   4: -1031.55948663858976   -1.13227e-02   1.28013e-03 ADIIS/DIIS
   @DF-RHF iter   5: -1031.56033085917306   -8.44221e-04   6.00725e-04 ADIIS/DIIS
   @DF-RHF iter   6: -1031.56054372874928   -2.12870e-04   2.34375e-04 ADIIS/DIIS
   @DF-RHF iter   7: -1031.56061218057084   -6.84518e-05   7.27609e-05 DIIS
   @DF-RHF iter   8: -1031.56061822911283   -6.04854e-06   1.84114e-05 DIIS
   @DF-RHF iter   9: -1031.56061864035314   -4.11240e-07   2.77430e-06 DIIS
   @DF-RHF iter  10: -1031.56061864768276   -7.32962e-09   2.92423e-07 DIIS
  Energy and wave function converged.


  ==> Post-Iterations <==

    Orbital Energies [Eh]
    ---------------------

    Doubly Occupied:                                                      

       1B2  -104.878700     1A1  -104.878684     2A1   -20.669609  
       3A1   -11.510623     2B2   -10.620083     4A1   -10.620056  
       3B2    -8.088436     5A1    -8.088433     1A2    -8.083777  
       1B1    -8.083771     4B2    -8.083600     6A1    -8.083594  
       7A1    -1.538491     8A1    -1.206957     5B2    -1.149358  
       9A1    -0.818394     6B2    -0.722491    10A1    -0.704751  
       2B1    -0.664485    11A1    -0.533762     2A2    -0.507971  
       3B1    -0.504454     7B2    -0.491220     8B2    -0.489074  

    Virtual:                                                              

      12A1     0.078578     4B1     0.086081     9B2     0.226083  
      13A1     0.359872    14A1     0.505947    10B2     0.560306  
       5B1     0.576105    15A1     0.593222    11B2     0.614657  
      16A1     0.615893     3A2     0.635474     6B1     0.732585  
      12B2     0.765137    13B2     0.930363    17A1     0.938655  
      18A1     1.076400    19A1     1.177600     7B1     1.230330  
      14B2     1.359137    20A1     1.924557  

    Final Occupation by Irrep:
             A1    A2    B1    B2 
    DOCC [    11,    2,    3,    8 ]
    NA   [    11,    2,    3,    8 ]
    NB   [    11,    2,    3,    8 ]

  @DF-RHF Final Energy: -1031.56061864768276

   => Energetics <=

    Nuclear Repulsion Energy =            187.6393888653013278
    One-Electron Energy =               -1796.3584691209280209
    Two-Electron Energy =                 577.1584616079438774
    Total Energy =                      -1031.5606186476829862

Computation Completed


Properties will be evaluated at   0.000000,   0.000000,   0.000000 [a0]

Properties computed using the SCF density matrix


 Multipole Moments:

 ------------------------------------------------------------------------------------
     Multipole            Electronic (a.u.)      Nuclear  (a.u.)        Total (a.u.)
 ------------------------------------------------------------------------------------

 L = 1.  Multiply by 2.5417464519 to convert [e a0] to [Debye]
 Dipole X            :          0.0000000            0.0000000            0.0000000
 Dipole Y            :          0.0000000            0.0000000            0.0000000
 Dipole Z            :         -1.3683793            0.8770872           -0.4912921
 Magnitude           :                                                    0.4912921

 ------------------------------------------------------------------------------------

*** tstop() called on debian at Tue May  5 08:42:40 2026
Module time:
	user time   =       0.85 seconds =       0.01 minutes
	system time =       0.06 seconds =       0.00 minutes
	total time  =          1 seconds =       0.02 minutes
Total time:
	user time   =       0.85 seconds =       0.01 minutes
	system time =       0.06 seconds =       0.00 minutes
	total time  =          1 seconds =       0.02 minutes

    Psi4 stopped on: Tuesday, 05 May 2026 08:42AM
    Psi4 wall time for execution: 0:00:00.97

*** Psi4 exiting successfully. Buy a developer a beer!
