

     ************************************************************************
     *************** Dalton - An Electronic Structure Program ***************
     ************************************************************************

    This is output from DALTON release Dalton2025.0-dev (2025)
         ( Web site: http://daltonprogram.org )

   ----------------------------------------------------------------------------

    NOTE:
     
    Dalton is an experimental code for the evaluation of molecular
    properties using (MC)SCF, DFT, CI, and CC wave functions.
    The authors accept no responsibility for the performance of
    the code or for the correctness of the results.
     
    The code (in whole or part) is provided under a licence and
    is not to be reproduced for further distribution without
    the written permission of the authors or their representatives.
     
    See the home page "http://daltonprogram.org" for further information.
     
    If results obtained with this code are published,
    the appropriate citations would be both of:
     
       K. Aidas, C. Angeli, K. L. Bak, V. Bakken,
       R. Bast, L. Boman, O. Christiansen, R. Cimiraglia,
       S. Coriani, P. Dahle, E. K. Dalskov, U. Ekstroem,
       T. Enevoldsen, J. J. Eriksen, P. Ettenhuber, B. Fernandez,
       L. Ferrighi, H. Fliegl, L. Frediani, K. Hald, A. Halkier,
       C. Haettig, H. Heiberg, T. Helgaker, A. C. Hennum,
       H. Hettema, E. Hjertenaes, S. Hoest, I.-M. Hoeyvik,
       M. F. Iozzi, B. Jansik, H. J. Aa. Jensen, D. Jonsson,
       P. Joergensen, J. Kauczor, S. Kirpekar,
       T. Kjaergaard, W. Klopper, S. Knecht, R. Kobayashi, H. Koch,
       J. Kongsted, A. Krapp, K. Kristensen, A. Ligabue,
       O. B. Lutnaes, J. I. Melo, K. V. Mikkelsen, R. H. Myhre,
       C. Neiss, C. B. Nielsen, P. Norman, J. Olsen,
       J. M. H. Olsen, A. Osted, M. J. Packer, F. Pawlowski,
       T. B. Pedersen, P. F. Provasi, S. Reine, Z. Rinkevicius,
       T. A. Ruden, K. Ruud, V. Rybkin, P. Salek, C. C. M. Samson,
       A. Sanchez de Meras, T. Saue, S. P. A. Sauer,
       B. Schimmelpfennig, K. Sneskov, A. H. Steindal,
       K. O. Sylvester-Hvid, P. R. Taylor, A. M. Teale,
       E. I. Tellgren, D. P. Tew, A. J. Thorvaldsen, L. Thoegersen,
       O. Vahtras, M. A. Watson, D. J. D. Wilson, M. Ziolkowski
       and H. Agren,
       "The Dalton quantum chemistry program system",
       WIREs Comput. Mol. Sci. 2014, 4:269-284 (doi: 10.1002/wcms.1172)
     
    and
     
       Dalton, a molecular electronic structure program,
       Release Dalton2025.0-dev (2025), see http://daltonprogram.org
   ----------------------------------------------------------------------------

    Authors in alphabetical order (Major contribution(s) in parenthesis):

  Kestutis Aidas,              Vilnius University,        Lithuania   (QM/MM)
  Celestino Angeli,            University of Ferrara,     Italy       (NEVPT2)
  Juan J. Aucar,               Northeast National UniversiArgentina   (LRESC, Relativistic Effects on NMR Shieldings and EFG)
  Keld L. Bak,                 UNI-C,                     Denmark     (AOSOPPA, non-adiabatic coupling, magnetic properties)
  Vebjoern Bakken,             University of Oslo,        Norway      (DALTON; geometry optimizer, symmetry detection)
  Radovan Bast,                UiT The Arctic U. of NorwayNorway      (DALTON installation and execution frameworks)
  Pablo Baudin,                University of Valencia,    Spain       (Cholesky excitation energies)
  Linus Boman,                 NTNU,                      Norway      (Cholesky decomposition and subsystems)
  Bruno N. Cabral Tenorio,     Technical Univ. of Denmark,Denmark     (Lanczos-based CC methods)
  Ove Christiansen,            Aarhus University,         Denmark     (CC module)
  Renzo Cimiraglia,            University of Ferrara,     Italy       (NEVPT2)
  Sonia Coriani,               Technical Univ. of Denmark,Denmark     (CC and RESPONS modules)
  Janusz Cukras,               University of Warsaw,      Poland      (MChD in RESPONS)
  Paal Dahle,                  University of Oslo,        Norway      (Parallelization)
  Erik K. Dalskov,             UNI-C,                     Denmark     (SOPPA)
  Thomas Enevoldsen,           Univ. of Southern Denmark, Denmark     (SOPPA)
  Janus J. Eriksen,            Aarhus University,         Denmark     (Polarizable embedding, TDA)
  Rasmus Faber,                Technical Univ. of Denmark,Denmark     (Vib.avg. NMR w. SOPPA, parallel AO-SOPPA, CVS-CC and EOMCC)
  Tobias Fahleson,             KTH Stockholm,             Sweden      (Damped cubic response)
  Berta Fernandez,             U. of Santiago de CompostelSpain       (Doublet spin, ESR in RESPONS)
  Lara Ferrighi,               Aarhus University,         Denmark     (PCM Cubic response)
  Heike Fliegl,                University of Oslo,        Norway      (CCSD(R12))
  Luca Frediani,               UiT The Arctic U. of NorwayNorway      (PCM)
  Emmanuel Fromager,           Univ. Strasbourg,          France      (MC-srDFT)
  Bin Gao,                     UiT The Arctic U. of NorwayNorway      (Gen1Int library)
  Andre S. P. Gomes,           CNRS/Universite de Lille,  France      (Frozen density embedding)
  Christof Haettig,            Ruhr-University Bochum,    Germany     (CC module)
  Kasper Hald,                 Aarhus University,         Denmark     (CC module)
  Asger Halkier,               Aarhus University,         Denmark     (CC module)
  Frederik Beyer Hansen,       University of Copenhagen,  Denmark     (Parallel AO-SOPPA)
  Erik D. Hedegaard,           Univ. of Southern Denmark, Denmark     (Polarizable embedding, QM/MM, and MC-srDFT)
  Hanne Heiberg,               University of Oslo,        Norway      (Geometry analysis, selected one-electron integrals)
  Trygve Helgaker,             University of Oslo,        Norway      (DALTON; ABACUS, ERI, DFT modules, London, and much more)
  Alf Christian Hennum,        University of Oslo,        Norway      (Parity violation)
  Hinne Hettema,               University of Auckland,    New Zealand (Quadratic response in RESPONS; SIRIUS supersymmetry)
  Andreas E. Hillers-Bendtsen, University of Copenhagen,  Denmark     (MP3)
  Eirik Hjertenaes,            NTNU,                      Norway      (Cholesky decomposition)
  Nicolai Machholdt Hoeyer,    Aarhus University,         Denmark     (MP3)
  Pi A. B. Haase,              University of Copenhagen,  Denmark     (Triplet AO-SOPPA)
  Maria Francesca Iozzi,       University of Oslo,        Norway      (RPA)
  Christoph Jacob,             TU Braunschweig            Germany     (Frozen density embedding)
  Brano Jansik,                Technical Univ. of Ostrava Czech Rep.  (DFT cubic response)
  Hans Joergen Aa. Jensen,     Univ. of Southern Denmark, Denmark     (DALTON; SIRIUS, RESPONS, ABACUS, MC-srDFT, and much more)
  Dan Jonsson,                 UiT The Arctic U. of NorwayNorway      (Cubic response in RESPONS module)
  Poul Joergensen,             Aarhus University,         Denmark     (RESPONS, ABACUS, and CC modules)
  Maciej Kaminski,             University of Warsaw,      Poland      (CPPh in RESPONS)
  Joanna Kauczor,              Linkoeping University,     Sweden      (Complex polarization propagator (CPP) module)
  Sheela Kirpekar,             Univ. of Southern Denmark, Denmark     (Mass-velocity & Darwin integrals)
  Frederik Oersted Kjeldal,    Technical Univ. of Denmark,Denmark     (MP3)
  Erik Kjellgren,              Univ. of Southern Denmark, Denmark     (MC-srDFT)
  Wim Klopper,                 KIT Karlsruhe,             Germany     (R12 code in CC, SIRIUS, and ABACUS modules)
  Stefan Knecht,               ETH Zurich,                Switzerland (Parallel CI and MCSCF, MC-srDFT)
  Rika Kobayashi,              Australian National Univ., Australia   (DIIS in CC, London in MCSCF)
  Henrik Koch,                 NTNU,                      Norway      (CC module, Cholesky decomposition)
  Jacob Kongsted,              Univ. of Southern Denmark, Denmark     (Polarizable embedding, polarizable density embedding, QM/MM)
  Andrea Ligabue,              University of Modena,      Italy       (CTOCD, AOSOPPA)
  Nanna H. List,               Univ. of Southern Denmark, Denmark     (Polarizable embedding)
  Ola B. Lutnaes,              University of Oslo,        Norway      (DFT Hessian)
  Juan I. Melo,                University of Buenos Aires,Argentina   (LRESC, Relativistic Effects on NMR Shieldings)
  Kurt V. Mikkelsen,           University of Copenhagen,  Denmark     (MC-SCRF, QM/MM, and MP3)
  Rolf H. Myhre,               NTNU,                      Norway      (Subsystems and CC3)
  Christian Neiss,             Univ. Erlangen-Nuernberg,  Germany     (CCSD(R12))
  Christian B. Nielsen,        University of Copenhagen,  Denmark     (QM/MM)
  Patrick Norman,              KTH Stockholm,             Sweden      (Cubic response and complex frequency response in RESPONS)
  Jeppe Olsen,                 Aarhus University,         Denmark     (SIRIUS CI/density modules)
  Jogvan Magnus H. Olsen,      Aarhus University,         Denmark     (Polarizable embedding and polarizable density embedding)
  Anders Osted,                Copenhagen University,     Denmark     (QM/MM)
  Martin J. Packer,            University of Sheffield,   UK          (SOPPA)
  Filip Pawlowski,             Kazimierz Wielki UniversityPoland      (CC3)
  Morten N. Pedersen,          Univ. of Southern Denmark, Denmark     (Polarizable embedding)
  Thomas B. Pedersen,          University of Oslo,        Norway      (Cholesky decomposition)
  Patricio F. Provasi,         University of Northeastern,Argentina   (Analysis of coupling constants in localized orbitals)
  Peter Reinholdt,             Univ. of Southern Denmark, Denmark     (Polarizable embedding and polarizable density embedding)
  Zilvinas Rinkevicius,        KTH Stockholm,             Sweden      (open-shell DFT, ESR)
  Elias Rudberg,               KTH Stockholm,             Sweden      (DFT grid and basis info)
  Torgeir A. Ruden,            University of Oslo,        Norway      (Numerical derivatives in ABACUS)
  Kenneth Ruud,                UiT The Arctic U. of NorwayNorway      (DALTON; ABACUS magnetic properties and much more)
  Pawel Salek,                 KTH Stockholm,             Sweden      (DALTON; DFT code)
  Claire C. M. Samson,         University of Karlsruhe    Germany     (Boys localization, r12 integrals in ERI)
  Alfredo Sanchez de Meras,    University of Valencia,    Spain       (CC module, Cholesky decomposition)
  Trond Saue,                  Paul Sabatier University,  France      (direct Fock matrix construction)
  Stephan P. A. Sauer,         University of Copenhagen,  Denmark     (SOPPA(CCSD), SOPPA prop., AOSOPPA, vibrational g-factors)
  Bernd Schimmelpfennig,       Forschungszentrum KarlsruheGermany     (AMFI module)
  Anna K. Schnack-Petersen,    University of Copenhagen,  Denmark     (RPA(D) and HRPA(D) properties in AOSOPPA)
  Kristian Sneskov,            Aarhus University,         Denmark     (Polarizable embedding, QM/MM)
  Arnfinn H. Steindal,         UiT The Arctic U. of NorwayNorway      (parallel QM/MM, polarizable embedding)
  Casper Steinmann,            Aalborg University,        Denmark     (QFIT, polarizable embedding)
  K. O. Sylvester-Hvid,        University of Copenhagen,  Denmark     (MC-SCRF)
  Peter R. Taylor,             VLSCI/Univ. of Melbourne,  Australia   (Symmetry handling ABACUS, integral transformation)
  Andrew M. Teale,             University of Nottingham,  England     (DFT-AC, DFT-D)
  David P. Tew,                University of Bristol,     England     (CCSD(R12))
  Julien Toulouse,             Sorbonne Univ.,            France      (MC-srDFT)
  Olav Vahtras,                KTH Stockholm,             Sweden      (Triplet response, spin-orbit, ESR, TDDFT, open-shell DFT)
  Lucas Visscher,              Vrije Universiteit AmsterdaNetherlands (Frozen density embedding)
  David J. Wilson,             La Trobe University,       Australia   (DFT Hessian and DFT magnetizabilities)
  Luna Zamok,                  University of Copenhagen,  Denmark     (Block Lanczos RPA solver in SOPPA module)
  Hans Agren,                  KTH Stockholm,             Sweden      (SIRIUS module, RESPONS, MC-SCRF solvation)
 --------------------------------------------------------------------------------

     Date and time (Linux)  : Mon May  4 22:26:40 2026
     Host name              : debian                                  

 * Work memory size             :    64000000 =  488.28 megabytes.

 * Directories for basis set searches:
   1) /home/vdwv/DIPLOM_ITMO/CALCULATIONS_AND_SOFTS/softwares/Dalton_Shenanigans/dalton/dalton/build
   2) /home/vdwv/DIPLOM_ITMO/CALCULATIONS_AND_SOFTS/softwares/Dalton_Shenanigans/dalton/dalton/build/basis


Compilation information
-----------------------

 Who compiled             | vdwv
 Host                     | debian
 System                   | Linux-6.12.73+deb13-amd64
 CMake generator          | Unix Makefiles
 Processor                | x86_64
 64-bit integers          | OFF
 MPI                      | OFF
 Fortran compiler         | /usr/bin/gfortran
 Fortran compiler version | GNU Fortran (Debian 14.2.0-19) 14.2.0
 C compiler               | /usr/bin/gcc
 C compiler version       | gcc (Debian 14.2.0-19) 14.2.0
 C++ compiler             | /usr/bin/g++
 C++ compiler version     | g++ (Debian 14.2.0-19) 14.2.0
 BLAS                     | /opt/intel/oneapi/mkl/2025.3/lib/intel64/libmkl_gf
                          | _lp64.so;/opt/intel/oneapi/mkl/2025.3/lib/intel64/
                          | libmkl_sequential.so;/opt/intel/oneapi/mkl/2025.3/
                          | lib/intel64/libmkl_core.so;/usr/lib/x86_64-linux-g
                          | nu/libpthread.a;/usr/lib/x86_64-linux-gnu/libm.so
 LAPACK                   | /opt/intel/oneapi/mkl/2025.3/lib/intel64/libmkl_la
                          | pack95_lp64.a;/opt/intel/oneapi/mkl/2025.3/lib/int
                          | el64/libmkl_gf_lp64.so
 Static linking           | OFF
 Last Git revision        | 1892235f9264b9be21ec2fefe6e0081d659ab244
 Git branch               | master
 Configuration time       | 2026-05-04 17:50:26.788788

 * Sequential calculation.


   Content of the .dal input file
 ----------------------------------

BASIS
6-31G
Acetic acid CH3COOH using the 6-31G basis
Using automatic symmetry detection
AtomTypes=3 Angstrom
Charge=6.0 Atoms=2
C1    1.101     -0.852      0.000
C2    0.000      0.150      0.000
Charge=8.0 Atoms=2
O3    0.127      1.354      0.000
O7   -1.222     -0.436      0.000
Charge=1.0 Atoms=4
H4    2.053     -0.347      0.000
H5    1.020     -1.487      0.873
H6    1.020     -1.487     -0.873
H8   -1.947      0.185      0.000

**DALTON INPUT
.RUN WAVE FUN
**WAVE FUN
.HF
**END OF


       *******************************************************************
       *********** Output from DALTON general input processing ***********
       *******************************************************************

 --------------------------------------------------------------------------------
   Overall default print level:    0
   Print level for DALTON.STAT:    1

    HERMIT 1- and 2-electron integral sections will be executed
    "Old" integral transformation used (limited to max 255 basis functions)
    Wave function sections will be executed (SIRIUS module)
 --------------------------------------------------------------------------------


   ****************************************************************************
   *************** Output of molecule and basis set information ***************
   ****************************************************************************


    The two title cards from your ".mol" input:
    --------------------------------------------------------------------------------
 1: Acetic acid CH3COOH using the 6-31G basis
 2: Using automatic symmetry detection
    --------------------------------------------------------------------------------

  Coordinates are entered in Angstrom and converted to atomic units.
          - Conversion factor : 1 bohr = 0.52917721080 A

  Atomic type no.    1
  --------------------
  Nuclear charge:   6.00000
  Number of symmetry independent centers:    2
  Number of basis sets to read;    2
  Basis set file used for this atomic type with Z =   6 :
     "/home/vdwv/DIPLOM_ITMO/CALCULATIONS_AND_SOFTS/softwares/Dalton_Shenanigans/dalton/dalton/build/basis/6-31G"

  Info about the basis set file: your basis has no documentation.
  Basis set: 6-31G                                                                           

  Atomic type no.    2
  --------------------
  Nuclear charge:   8.00000
  Number of symmetry independent centers:    2
  Number of basis sets to read;    2
  Basis set file used for this atomic type with Z =   8 :
     "/home/vdwv/DIPLOM_ITMO/CALCULATIONS_AND_SOFTS/softwares/Dalton_Shenanigans/dalton/dalton/build/basis/6-31G"

  Info about the basis set file: your basis has no documentation.
  Basis set: 6-31G                                                                           

  Atomic type no.    3
  --------------------
  Nuclear charge:   1.00000
  Number of symmetry independent centers:    4
  Number of basis sets to read;    2
  Basis set file used for this atomic type with Z =   1 :
     "/home/vdwv/DIPLOM_ITMO/CALCULATIONS_AND_SOFTS/softwares/Dalton_Shenanigans/dalton/dalton/build/basis/6-31G"

  Info about the basis set file: your basis has no documentation.
  Basis set: 6-31G                                                                           


                      SYMADD: Addition of symmetry requested
                      --------------------------------------

 Symmetry test threshold:  5.00E-06

@  The molecule has been centered at center of mass and rotated
@  so the principal axes of inertia are along coordinate axes.

 Symmetry class found: C(s)           

 Symmetry Independent Centres             
 ----------------------------
O7     8 :     -1.31461446    -2.03640576     0.00000000  Isotope  1
O3     8 :     -1.15264076     2.19613966     0.00000000  Isotope  1
C2     6 :     -0.05081377     0.19108413     0.00000000  Isotope  1
C1     6 :      2.73838129    -0.17579823     0.00000000  Isotope  1
H8     1 :     -3.10941054    -1.85503049     0.00000000  Isotope  1
H5     1 :      3.29774323    -1.24840561     1.64973091  Isotope  1
H4     1 :      3.67065008     1.63474204     0.00000000  Isotope  1

 The following symmetry element was found:   Z        


                         SYMGRP: Point group information
                         -------------------------------

@    Full point group is: C(s)           
@    Represented as:      Cs 

@  * The irrep name for each symmetry:    1: A'     2: A" 

   * The point group was generated by:

      Reflection in the xy-plane

   * Group multiplication table

        |  E   Oxy
   -----+----------
     E  |  E   Oxy
    Oxy | Oxy   E 

   * Character table

        |  E   Oxy
   -----+----------
    A'  |   1    1
    A"  |   1   -1

   * Direct product table

        | A'   A" 
   -----+----------
    A'  | A'   A" 
    A"  | A"   A' 


                                 Isotopic Masses
                                 ---------------

                           C1         12.000000
                           C2         12.000000
                           O3         15.994915
                           O7         15.994915
                           H4          1.007825
                           H5  _1      1.007825
                           H5  _2      1.007825
                           H8          1.007825

                       Total mass:    60.021130 amu
                       Natural abundance:  97.285 %

 Center-of-mass coordinates (a.u.):   -0.000000    0.000000    0.000000
 Center-of-mass coordinates (Angs):   -0.000000    0.000000    0.000000


  Atoms and basis sets
  --------------------

  Number of atom types :    3
  Total number of atoms:    8

  Basis set used is "6-31G" from the basis set library.

  label    atoms   charge   prim   cont     basis
  ----------------------------------------------------------------------
  C2          2    6.0000    22     9      [10s4p|3s2p]                                       
  O7          2    8.0000    22     9      [10s4p|3s2p]                                       
  H8          4    1.0000     4     2      [4s|2s]                                            
  ----------------------------------------------------------------------
  total:      8   32.0000   104    44
  ----------------------------------------------------------------------

  Threshold for neglecting AO integrals:  1.00D-12


  Cartesian Coordinates (bohr)
  ----------------------------

  Total number of coordinates:   24
  C1      :     1  x   2.7383812865    2  y  -0.1757982279    3  z   0.0000000000
  C2      :     4  x  -0.0508137704    5  y   0.1910841251    6  z   0.0000000000
  O3      :     7  x  -1.1526407635    8  y   2.1961396586    9  z   0.0000000000
  O7      :    10  x  -1.3146144591   11  y  -2.0364057551   12  z   0.0000000000
  H4      :    13  x   3.6706500762   14  y   1.6347420364   15  z   0.0000000000
  H5  / 1 :    16  x   3.2977432296   17  y  -1.2484056062   18  z   1.6497309071
  H5  / 2 :    19  x   3.2977432296   20  y  -1.2484056062   21  z  -1.6497309071
  H8      :    22  x  -3.1094105411   23  y  -1.8550304944   24  z   0.0000000000


  Cartesian Coordinates (xyz format; angstrom)
  --------------------------------------------

    8

  C        1.4490889713           -0.0930284159            0.0000000000
  C       -0.0268894893            0.1011173643            0.0000000000
  O       -0.6099512243            1.1621470591            0.0000000000
  O       -0.6956640127           -1.0776195176            0.0000000000
  H        1.9424243692            0.8650682312            0.0000000000
  H        1.7450905642           -0.6606277966            0.8730000000
  H        1.7450905642           -0.6606277966           -0.8730000000
  H       -1.6454291974           -0.9816398630            0.0000000000


  Symmetry Coordinates
  --------------------

  Number of coordinates in each symmetry:    15    9

  Symmetry  A'  ( 1)

    1   C1    x    1
    2   C1    y    2
    3   C2    x    4
    4   C2    y    5
    5   O3    x    7
    6   O3    y    8
    7   O7    x   10
    8   O7    y   11
    9   H4    x   13
   10   H4    y   14
   11   H5    x    [ 16  +   19 ]/2
   12   H5    y    [ 17  +   20 ]/2
   13   H5    z    [ 18  -   21 ]/2
   14   H8    x   22
   15   H8    y   23

  Symmetry  A"  ( 2)

   16   C1    z    3
   17   C2    z    6
   18   O3    z    9
   19   O7    z   12
   20   H4    z   15
   21   H5    x    [ 16  -   19 ]/2
   22   H5    y    [ 17  -   20 ]/2
   23   H5    z    [ 18  +   21 ]/2
   24   H8    z   24


   Interatomic separations (in Angstrom):
   --------------------------------------

            C1          C2          O3          O7          H4          H5  _1
            ------      ------      ------      ------      ------      ------
 C1    :    0.000000
 C2    :    1.488692    0.000000
 O3    :    2.411454    1.210680    0.000000
 O7    :    2.359954    1.355242    2.241406    0.000000
 H4    :    1.077650    2.112302    2.569606    3.276209    0.000000
 H5  _1:    1.082550    2.117144    3.103363    2.625508    1.768847    0.000000
 H5  _2:    1.082550    2.117144    3.103363    2.625508    1.768847    1.746000
 H8    :    3.219577    1.947315    2.380764    0.954603    4.035223    3.515793

            H5  _2      H8    
            ------      ------
 H5  _2:    0.000000
 H8    :    3.515793    0.000000


  Max    interatomic separation is    4.0352 Angstrom (    7.6255 Bohr)
  between atoms    8 and    5, "H8    " and "H4    ".

  Min HX interatomic separation is    0.9546 Angstrom (    1.8039 Bohr)

  Min YX interatomic separation is    1.2107 Angstrom (    2.2879 Bohr)


  Bond distances (Angstrom):
  --------------------------

                  atom 1     atom 2       distance
                  ------     ------       --------
  bond distance:  C2         C1           1.488692
  bond distance:  O3         C2           1.210680
  bond distance:  O7         C2           1.355242
  bond distance:  H4         C1           1.077650
  bond distance:  H5  _1     C1           1.082550
  bond distance:  H5  _2     C1           1.082550
  bond distance:  H8         O7           0.954603


  Bond angles (degrees):
  ----------------------

                  atom 1     atom 2     atom 3         angle
                  ------     ------     ------         -----
  bond angle:     C2         C1         H4           109.751
  bond angle:     C2         C1         H5  _1       109.845
  bond angle:     C2         C1         H5  _2       109.845
  bond angle:     H4         C1         H5  _1       109.936
  bond angle:     H4         C1         H5  _2       109.936
  bond angle:     H5  _1     C1         H5  _2       107.497
  bond angle:     C1         C2         O3           126.283
  bond angle:     C1         C2         O7           112.076
  bond angle:     O3         C2         O7           121.641
  bond angle:     C2         O7         H8           113.799




 Principal moments of inertia (u*A**2) and principal axes
 --------------------------------------------------------

   IA      44.544599          1.000000   -0.000000    0.000000
   IB      53.104139          0.000000    1.000000    0.000000
   IC      94.576367          0.000000    0.000000    1.000000


 Rotational constants
 --------------------

               A                   B                   C

          11345.4610           9516.7536           5343.6077 MHz
            0.378444            0.317445            0.178244 cm-1


@  Nuclear repulsion energy :  121.296409946868 Hartree


  Symmetry Orbitals
  -----------------

  Number of orbitals in each symmetry:          34   10


  Symmetry  A' ( 1)

    1     C1       1s         1
    2     C1       1s         2
    3     C1       1s         3
    4     C1       2px        4
    5     C1       2py        5
    6     C1       2px        7
    7     C1       2py        8
    8     C2       1s        10
    9     C2       1s        11
   10     C2       1s        12
   11     C2       2px       13
   12     C2       2py       14
   13     C2       2px       16
   14     C2       2py       17
   15     O3       1s        19
   16     O3       1s        20
   17     O3       1s        21
   18     O3       2px       22
   19     O3       2py       23
   20     O3       2px       25
   21     O3       2py       26
   22     O7       1s        28
   23     O7       1s        29
   24     O7       1s        30
   25     O7       2px       31
   26     O7       2py       32
   27     O7       2px       34
   28     O7       2py       35
   29     H4       1s        37
   30     H4       1s        38
   31     H5       1s        39 +   40
   32     H5       1s        41 +   42
   33     H8       1s        43
   34     H8       1s        44


  Symmetry  A" ( 2)

   35     C1       2pz        6
   36     C1       2pz        9
   37     C2       2pz       15
   38     C2       2pz       18
   39     O3       2pz       24
   40     O3       2pz       27
   41     O7       2pz       33
   42     O7       2pz       36
   43     H5       1s        39 -   40
   44     H5       1s        41 -   42

  Symmetries of electric field:  A' (1)  A' (1)  A" (2)

  Symmetries of magnetic field:  A" (2)  A" (2)  A' (1)


                     .---------------------------------------.
                     | Starting in Integral Section (HERMIT) |
                     `---------------------------------------'



 ***************************************************************************************
 ****************** Output from **INTEGRALS input processing (HERMIT) ******************
 ***************************************************************************************


 - Using defaults, no **INTEGRALS input found

 Default print level:        1

 Calculation of one- and two-electron Hamiltonian integrals.

 Center of mass  (bohr):     -0.000000000000      0.000000000000      0.000000000000
 Operator center (bohr):      0.000000000000      0.000000000000      0.000000000000
 Gauge origin    (bohr):     -0.000000000000      0.000000000000      0.000000000000
 Dipole origin   (bohr):     -0.000000000000      0.000000000000      0.000000000000

Calculation of 2-electron integrals are postponed until they are needed.


     ************************************************************************
     ************************** Output from HERINT **************************
     ************************************************************************



                      Nuclear contribution to dipole moments
                      --------------------------------------

                 au               Debye          C m (/(10**-30)

      x      3.54408931         9.00817592        30.04804050
      y     -1.34751306        -3.42503634       -11.42469149


  Total CPU  time used in HERMIT:   0.04 seconds
  Total wall time used in HERMIT:   0.04 seconds


                        .----------------------------------.
                        | End of Integral Section (HERMIT) |
                        `----------------------------------'



                   .--------------------------------------------.
                   | Starting in Wave Function Section (SIRIUS) |
                   `--------------------------------------------'


 *** Output from Huckel module :

     Using EWMO model:          F
     Using EHT  model:          T
     Number of Huckel orbitals each symmetry:   19    5

 Huckel EHT eigenvalues for symmetry :  1
          -20.709079     -20.705019     -11.391080     -11.374404      -1.661656
           -1.407102      -1.240482      -0.791010      -0.719495      -0.691476
           -0.572904      -0.559086      -0.489333      -0.282346      -0.259428
           -0.218148      -0.209705      -0.191499      -0.180059

 Huckel EHT eigenvalues for symmetry :  2
           -0.762914      -0.596847      -0.579995      -0.310805      -0.198328

 **********************************************************************
 *SIRIUS* a direct, restricted step, second order MCSCF program       *
 **********************************************************************

 
     Date and time (Linux)  : Mon May  4 22:26:40 2026
     Host name              : debian                                  

 Title lines from ".mol" input file:
     Acetic acid CH3COOH using the 6-31G basis
     Using automatic symmetry detection

 Print level on unit LUPRI =   2 is   0
 Print level on unit LUW4  =   2 is   5

@    Restricted, closed shell Hartree-Fock calculation.

 Initial molecular orbitals are obtained according to
 ".MOSTART EHT   " input option

     Wave function specification
     ============================
@    Wave function type        --- HF ---
@    Number of closed shell electrons          32
@    Number of electrons in active shells       0
@    Total charge of the molecule               0

@    Spin multiplicity and 2 M_S                1         0
@    Total number of symmetries                 2 (point group: Cs )
@    Reference state symmetry                   1 (irrep name : A' )

     Orbital specifications
     ======================
@    Abelian symmetry species          All |    1    2
@                                          |  A'   A" 
                                       --- |  ---  ---
@    Total number of orbitals           44 |   34   10
@    Number of basis functions          44 |   34   10

      ** Automatic occupation of RHF orbitals **

      -- Initial occupation of symmetries is determined from extended Huckel guess.           
      -- Initial occupation of symmetries is :
@    Occupied SCF orbitals              16 |   13    3

     Maximum number of Fock   iterations      0
     Maximum number of DIIS   iterations     60
     Maximum number of QC-SCF iterations     60
     Threshold for SCF convergence     1.00D-05


 ***********************************************
 ***** DIIS acceleration of SCF iterations *****
 ***********************************************

 C1-DIIS algorithm; max error vectors =    8

 Automatic occupation of symmetries with  32 electrons.

 Iter     Total energy    Error norm  Delta(E)    SCF occupation
 -----------------------------------------------------------------------------

Calculating AOSUPINT

---> (Re)generating AOTWOINT


     ************************************************************************
     ************************** Output from HERINT **************************
     ************************************************************************


***  INFO  GETGAB: GABSO--- not found on AOGABINT. Regenerating.

 Threshold for neglecting two-electron integrals:  1.00D-12
 HERMIT - Number of two-electron integrals written:      264373 ( 53.9% )
 HERMIT - Megabytes written:                              3.159

  Total CPU  time used in TWOINT:   0.13 seconds
  Total wall time used in TWOINT:   0.13 seconds
  Time used in TWOINT     is       0.14 seconds
  CPU  time used in MAKE_AOTWOINT is   0.14 seconds
  WALL time used in MAKE_AOTWOINT is   0.14 seconds
     (Precalculated AO two-electron integrals are transformed to P-supermatrix elements.
      Threshold for discarding integrals :  1.00D-12 )

@  1  -226.862557374       3.99D+00  -2.27D+02    13   3
      Virial theorem: -V/T =      1.997299
@    MULPOP   C1      0.33; C2      1.06; O3     -0.89; O7     -0.43; H4     -0.11; H5  _1 -0.08; H5  _2 -0.08; H8      0.19; 
   1  Level shift: doubly occupied orbital energies shifted by -2.00D-01
 -----------------------------------------------------------------------------
@  2  -227.584865137       1.44D+00  -7.22D-01    13   3
      Virial theorem: -V/T =      2.003176
@    MULPOP   C1     -0.58; C2      0.16; O3     -0.05; O7     -0.56; H4      0.22; H5  _1  0.22; H5  _2  0.22; H8      0.38; 
   2  Level shift: doubly occupied orbital energies shifted by -1.00D-01
 -----------------------------------------------------------------------------
@  3  -227.686178351       5.07D-01  -1.01D-01    13   3
      Virial theorem: -V/T =      1.998496
@    MULPOP   C1     -0.50; C2      0.76; O3     -0.60; O7     -0.65; H4      0.19; H5  _1  0.20; H5  _2  0.20; H8      0.40; 
   3  Level shift: doubly occupied orbital energies shifted by -5.00D-02
 -----------------------------------------------------------------------------
@  4  -227.699982930       1.09D-01  -1.38D-02    13   3
      Virial theorem: -V/T =      2.000094
@    MULPOP   C1     -0.51; C2      0.72; O3     -0.53; O7     -0.72; H4      0.20; H5  _1  0.20; H5  _2  0.20; H8      0.43; 
   4  Level shift: doubly occupied orbital energies shifted by -1.25D-02
 -----------------------------------------------------------------------------
@  5  -227.700967057       3.58D-02  -9.84D-04    13   3
      Virial theorem: -V/T =      1.999827
@    MULPOP   C1     -0.53; C2      0.72; O3     -0.54; O7     -0.71; H4      0.21; H5  _1  0.21; H5  _2  0.21; H8      0.43; 
 -----------------------------------------------------------------------------
@  6  -227.701098656       1.22D-02  -1.32D-04    13   3
      Virial theorem: -V/T =      1.999631
@    MULPOP   C1     -0.52; C2      0.72; O3     -0.55; O7     -0.72; H4      0.21; H5  _1  0.21; H5  _2  0.21; H8      0.44; 
 -----------------------------------------------------------------------------
@  7  -227.701112687       3.51D-03  -1.40D-05    13   3
      Virial theorem: -V/T =      1.999705
@    MULPOP   C1     -0.52; C2      0.72; O3     -0.55; O7     -0.72; H4      0.21; H5  _1  0.21; H5  _2  0.21; H8      0.44; 
 -----------------------------------------------------------------------------
@  8  -227.701115108       8.98D-04  -2.42D-06    13   3
      Virial theorem: -V/T =      1.999691
@    MULPOP   C1     -0.52; C2      0.72; O3     -0.55; O7     -0.72; H4      0.21; H5  _1  0.21; H5  _2  0.21; H8      0.44; 
 -----------------------------------------------------------------------------
@  9  -227.701115251       3.86D-04  -1.43D-07    13   3
      Virial theorem: -V/T =      1.999691
@    MULPOP   C1     -0.52; C2      0.72; O3     -0.55; O7     -0.72; H4      0.21; H5  _1  0.21; H5  _2  0.21; H8      0.44; 
 -----------------------------------------------------------------------------
@ 10  -227.701115275       1.25D-04  -2.35D-08    13   3
      Virial theorem: -V/T =      1.999691
@    MULPOP   C1     -0.52; C2      0.72; O3     -0.55; O7     -0.72; H4      0.21; H5  _1  0.21; H5  _2  0.21; H8      0.44; 
 -----------------------------------------------------------------------------
@ 11  -227.701115278       3.84D-05  -2.95D-09    13   3
      Virial theorem: -V/T =      1.999691
@    MULPOP   C1     -0.52; C2      0.72; O3     -0.55; O7     -0.72; H4      0.21; H5  _1  0.21; H5  _2  0.21; H8      0.44; 
 -----------------------------------------------------------------------------
@ 12  -227.701115278       7.13D-06  -2.48D-10    13   3

@ *** DIIS converged in  12 iterations !
@     Converged SCF energy, gradient:   -227.701115277756    7.13D-06
    - total time used in SIRFCK :              0.00 seconds


 *** SCF orbital energy analysis ***

 Only the 20 lowest virtual orbital energies printed in each symmetry.

 Number of electrons        :   32
 Closed shell orbitals      :   13    3

 Sym       Hartree-Fock orbital energies

1 A'    -20.61655361   -20.57036526   -11.41469771   -11.24891858    -1.48711455
         -1.37953952    -1.04394810    -0.84213028    -0.70145962    -0.68515137
         -0.58047837    -0.57140447    -0.45610924     0.21695414     0.25331519
          0.30273622     0.38574671     0.46433484     0.50444954     0.78609396
          0.82407682     0.83684710     0.95369834     1.01335486     1.11961693
          1.20644092     1.22646200     1.24605474     1.32023197     1.39362263
          1.44702919     1.67041814     2.01714087

2 A"     -0.65883288    -0.56469153    -0.47828026     0.16474392     0.31923233
          0.73376403     0.83111377     1.16895260     1.22265013     1.33609437

    E(LUMO) :     0.16474392 au (symmetry 2)
  - E(HOMO) :    -0.45610924 au (symmetry 1)
  ------------------------------------------
    gap     :     0.62085316 au

 --- Writing SIRIFC interface file

--------------------------------------------------------------------------------


     .--------------------------------------------------.
     | HF-SCF KT IPs [a.u. & eV] from Koopmans' theorem |
     `--------------------------------------------------'


     HF-SCF KT symmetry 1 ( A' ) in point group Cs  -- 13 principal poles with pole strength 1

   ============  ============  ============  ============  ============
      20.616554     20.570365     11.414698     11.248919      1.487115
     561.004961    559.748112    310.609725    306.098645     40.466445
   ============  ============  ============  ============  ============

   ============  ============  ============  ============  ============
       1.379540      1.043948      0.842130      0.701460      0.685151
      37.539180     28.407273     22.915531     19.087687     18.643917
   ============  ============  ============  ============  ============

   ============  ============  ============
       0.580478      0.571404      0.456109
      15.795620     15.548706     12.411364
   ============  ============  ============

     HF-SCF KT symmetry 2 ( A" ) in point group Cs  -- 3 principal poles with pole strength 1

   ============  ============  ============
       0.658833      0.564692      0.478280
      17.927755     15.366038     13.014668
   ============  ============  ============

@ Summary of HF-SCF KT ionization potentials [eV]:

@ Symmetry 1 (A' ) :   561.005     559.748     310.610     306.099      40.466
@                       37.539      28.407      22.916      19.088      18.644
@                       15.796      15.549      12.411

@ Symmetry 2 (A" ) :    17.928      15.366      13.015

  === End of HF-SCF KT output ===
--------------------------------------------------------------------------------


 CPU and wall time for SCF :       0.175       0.175


                       .-----------------------------------.
                       | --- Final results from SIRIUS --- |
                       `-----------------------------------'


@    Spin multiplicity:           1
@    Spatial symmetry:            1 ( irrep  A'  in Cs  )
@    Total charge of molecule:    0

@    Final HF energy:            -227.701115277756                 
@    Nuclear repulsion:           121.296409946868
@    Electronic energy:          -348.997525224624

@    Final gradient norm:           0.000007133971

 
     Date and time (Linux)  : Mon May  4 22:26:40 2026
     Host name              : debian                                  

File label for MO orbitals:   4May26   FOCKDIIS

 (Only coefficients > 0.0100 are printed.)

 Molecular orbitals for symmetry species 1  (A' )
 ------------------------------------------------

    Orbital         1        2        3        4        5        6        7
   1 C1  :1s    -0.0000  -0.0000   0.0019   0.9962  -0.0166  -0.0038  -0.1769
   2 C1  :1s    -0.0004  -0.0002  -0.0006   0.0263   0.0341   0.0067   0.3391
   3 C1  :1s     0.0019   0.0019   0.0053  -0.0194   0.0068  -0.0016   0.3239
   4 C1  :2px    0.0001   0.0000   0.0001  -0.0004  -0.0261  -0.0049  -0.0557
   5 C1  :2py    0.0001  -0.0000  -0.0001  -0.0001   0.0019   0.0111  -0.0007
   7 C1  :2py    0.0008  -0.0016   0.0004  -0.0001   0.0005   0.0198   0.0028
   8 C2  :1s     0.0001   0.0002   0.9962  -0.0022  -0.1181  -0.0410  -0.0754
   9 C2  :1s     0.0001   0.0004   0.0240  -0.0006   0.2475   0.0862   0.1715
  10 C2  :1s     0.0034   0.0057  -0.0105   0.0048   0.0020   0.0220   0.0995
  11 C2  :2px   -0.0001   0.0001  -0.0010  -0.0002  -0.0999  -0.0321   0.1853
  12 C2  :2py   -0.0001  -0.0000   0.0001   0.0001   0.0219   0.2214  -0.0718
  13 C2  :2px   -0.0036  -0.0041  -0.0043   0.0028   0.0453   0.0085   0.0353
  14 C2  :2py   -0.0035   0.0064   0.0015   0.0004  -0.0005  -0.0737  -0.0181
  15 O3  :1s    -0.0006   0.9959  -0.0004   0.0000  -0.1186  -0.1579   0.0425
  16 O3  :1s    -0.0001   0.0233   0.0004  -0.0001   0.2592   0.3434  -0.0960
  17 O3  :1s    -0.0001  -0.0147  -0.0014  -0.0003   0.2561   0.3712  -0.1051
  18 O3  :2px   -0.0001   0.0011   0.0002  -0.0000   0.0438   0.0650   0.0370
  19 O3  :2py    0.0001  -0.0022  -0.0004   0.0001  -0.1010  -0.0987   0.0101
  20 O3  :2px    0.0010  -0.0022   0.0000  -0.0003   0.0110   0.0328   0.0139
  21 O3  :2py    0.0005   0.0043   0.0015  -0.0001  -0.0465  -0.0441   0.0016
  22 O7  :1s     0.9958   0.0006  -0.0001  -0.0000  -0.1508   0.1455   0.0275
  23 O7  :1s     0.0231  -0.0002   0.0003  -0.0002   0.3269  -0.3146  -0.0606
  24 O7  :1s    -0.0120   0.0006  -0.0001   0.0004   0.3552  -0.3759  -0.0867
  25 O7  :2px   -0.0007  -0.0001  -0.0001  -0.0001  -0.0152   0.0290   0.1155
  26 O7  :2py    0.0019  -0.0001   0.0001  -0.0000   0.0917  -0.0460   0.0231
  27 O7  :2px   -0.0001   0.0012   0.0008   0.0007  -0.0031   0.0008   0.0422
  28 O7  :2py   -0.0034  -0.0004  -0.0009   0.0002   0.0645  -0.0402   0.0060
  29 H4  :1s    -0.0002   0.0001  -0.0002   0.0001   0.0050   0.0026   0.1031
  31 H5  :1s    -0.0000  -0.0001  -0.0002   0.0001   0.0050   0.0001   0.1084
  32 H5  :1s    -0.0001  -0.0003   0.0004   0.0033  -0.0007  -0.0016   0.0148
  33 H8  :1s     0.0004   0.0002   0.0003   0.0002   0.0833  -0.0910  -0.0735
  34 H8  :1s     0.0013   0.0000   0.0004   0.0004  -0.0048   0.0084  -0.0136

    Orbital         8        9       10       11       12       13       14
   1 C1  :1s     0.0761  -0.0195   0.0319   0.0022   0.0062   0.0208  -0.0701
   2 C1  :1s    -0.1372   0.0314  -0.0469  -0.0031  -0.0119  -0.0340   0.0565
   3 C1  :1s    -0.2058   0.0865  -0.2137  -0.0310  -0.0694  -0.1642   1.1573
   4 C1  :2px   -0.1234   0.1370  -0.2024  -0.1032   0.2303   0.1951  -0.0201
   5 C1  :2py   -0.0256  -0.1414   0.0519  -0.4177   0.0164  -0.0908   0.0170
   6 C1  :2px   -0.0172   0.0243  -0.0404  -0.0393   0.1226   0.1285   0.0366
   7 C1  :2py   -0.0073  -0.0697   0.0055  -0.2146   0.0211  -0.0840   0.1577
   8 C2  :1s    -0.0958   0.0820   0.0013  -0.0154   0.0204   0.0171   0.0254
   9 C2  :1s     0.2307  -0.2144  -0.0309   0.0376  -0.0323  -0.0351  -0.0006
  10 C2  :1s     0.1673  -0.1595   0.0908   0.0520  -0.0827  -0.0991  -0.4160
  11 C2  :2px   -0.0746  -0.0669   0.3230   0.0311  -0.2232  -0.1279   0.0268
  12 C2  :2py   -0.1797  -0.2449   0.0174   0.1011   0.2153  -0.0062   0.0919
  13 C2  :2px    0.0215  -0.0765   0.1979   0.0398  -0.0051   0.0770  -0.0851
  14 C2  :2py   -0.0249  -0.0195  -0.0134  -0.0302  -0.0593   0.1375  -0.0288
  15 O3  :1s     0.0393  -0.0902  -0.0342   0.0115   0.0258  -0.0019  -0.0141
  16 O3  :1s    -0.0867   0.2046   0.0713  -0.0274  -0.0636   0.0119   0.0304
  17 O3  :1s    -0.1278   0.3419   0.1757  -0.0290  -0.0633  -0.0269   0.1466
  18 O3  :2px   -0.0085  -0.2710   0.1595   0.0657   0.1296   0.5051  -0.0609
  19 O3  :2py   -0.0864   0.2500   0.2466  -0.1209  -0.2832   0.2643  -0.0249
  20 O3  :2px   -0.0081  -0.1364   0.0958   0.0361   0.0925   0.3636  -0.0198
  21 O3  :2py   -0.0407   0.1238   0.1205  -0.0772  -0.1747   0.2008  -0.0749
  22 O7  :1s     0.0264  -0.0230  -0.0479   0.0106  -0.0525  -0.0115  -0.0749
  23 O7  :1s    -0.0614   0.0574   0.1119  -0.0186   0.1287   0.0018   0.1236
  24 O7  :1s    -0.0789   0.0735   0.1821  -0.0740   0.1932   0.1973   0.9314
  25 O7  :2px    0.3525   0.2207   0.1282  -0.0895   0.2665   0.0240  -0.1956
  26 O7  :2py    0.2074  -0.0186  -0.3153  -0.1087  -0.3152   0.2513   0.0576
  27 O7  :2px    0.1835   0.1433   0.0812  -0.0735   0.1728   0.0432  -0.4900
  28 O7  :2py    0.1099  -0.0274  -0.1962  -0.0827  -0.2396   0.2437   0.1105
  29 H4  :1s    -0.0978  -0.0161  -0.0535  -0.2821   0.0747  -0.0061  -0.0373
  30 H4  :1s    -0.0449   0.0019  -0.0108  -0.2016   0.0577   0.0342  -0.6587
  31 H5  :1s    -0.0687   0.0818  -0.0759   0.1257   0.0356   0.0542   0.0195
  32 H5  :1s    -0.0234   0.0499  -0.0381   0.0887   0.0413   0.0576  -0.3504
  33 H8  :1s    -0.2109  -0.1097  -0.0457   0.0499  -0.1456  -0.0200  -0.0963
  34 H8  :1s    -0.0608  -0.0350  -0.0011   0.0267  -0.0730  -0.0422  -1.4291

    Orbital        15       16       17       18       19       20       21
   1 C1  :1s    -0.1177   0.0213   0.0819  -0.0346   0.0142  -0.0039   0.0347
   2 C1  :1s     0.0751  -0.0130   0.0110  -0.0697  -0.0573   0.0724  -0.2642
   3 C1  :1s     2.2026  -0.4646  -1.9215   1.5929   0.1027  -0.7142  -0.3706
   4 C1  :2px    0.1302  -0.1398   0.1486   0.1537   0.0166  -0.1412   0.8318
   5 C1  :2py   -0.1000  -0.2864  -0.0763  -0.0884  -0.0835  -0.5225   0.2345
   6 C1  :2px    0.4812  -0.5680   2.0534  -0.9168   0.1234   0.3717  -0.8967
   7 C1  :2py   -0.5440  -1.3671  -0.3294  -0.1048  -1.1218   1.2872  -0.9753
   8 C2  :1s     0.0082   0.0163  -0.1427  -0.0607   0.0230  -0.0161  -0.0581
   9 C2  :1s     0.0778   0.0118   0.1660  -0.1395  -0.0723   0.4367   0.4409
  10 C2  :1s    -0.4731  -0.4186   3.0872   1.5950   0.2728  -0.6042  -0.8570
  11 C2  :2px   -0.0137  -0.0278   0.2303  -0.3130   0.2839  -0.5369  -0.1964
  12 C2  :2py   -0.0509  -0.0478  -0.1235  -0.0574   0.3159  -0.4606  -0.2594
  13 C2  :2px    0.1196  -0.0447   1.3176  -2.2699   0.1734   1.2731   1.0700
  14 C2  :2py   -0.0140   0.0800  -0.5049   0.7329   2.8616  -0.1157   1.1090
  15 O3  :1s    -0.0147  -0.0119   0.0160   0.0867   0.0663  -0.0114   0.0079
  16 O3  :1s     0.0207   0.0239  -0.0399  -0.1161  -0.0647  -0.0175  -0.0341
  17 O3  :1s     0.2429   0.1212  -0.0990  -1.8348  -1.7450   0.6312  -0.0500
  18 O3  :2px    0.0794   0.0130  -0.0766   0.0309  -0.1522  -0.1156  -0.2053
  19 O3  :2py   -0.0116  -0.0686   0.0822   0.1724  -0.0476   0.0103  -0.0452
  20 O3  :2px    0.1001   0.0565  -0.2562  -0.0349  -0.6570  -0.0141  -0.2054
  21 O3  :2py   -0.1058  -0.1005   0.1058   0.9112   0.3496  -0.2684  -0.1094
  22 O7  :1s     0.0168  -0.0033   0.0260   0.0428  -0.0715   0.0013   0.0178
  23 O7  :1s    -0.0247  -0.0195  -0.0387  -0.0785   0.1076   0.0159  -0.1446
  24 O7  :1s    -0.1967   0.2374  -0.3989  -0.6327   1.3832   0.2346   0.7828
  25 O7  :2px    0.1085  -0.1100  -0.1248  -0.1099   0.1600   0.0860  -0.1199
  26 O7  :2py   -0.0166  -0.0034  -0.1260  -0.2184   0.1225  -0.1470  -0.0328
  27 O7  :2px    0.2326  -0.1870  -0.4692  -0.1450   0.7221  -0.2206   0.1783
  28 O7  :2py    0.0606   0.0299  -0.2848  -0.7216   0.6193   0.0543   0.2238
  29 H4  :1s     0.0322   0.0781  -0.0602  -0.0036  -0.1466  -0.3631   0.2614
  30 H4  :1s    -0.5004   2.1513   0.0828   0.0608   0.5842  -0.3618   0.3790
  31 H5  :1s    -0.0238  -0.0260  -0.0638   0.0332   0.0202   0.2299   0.0136
  32 H5  :1s    -1.3712  -0.5708  -0.2262  -0.2667  -0.3713   0.2251  -0.0794
  33 H8  :1s     0.0336   0.0223  -0.0060  -0.0884  -0.0416  -0.1127   0.2922
  34 H8  :1s     0.6006  -0.3955  -0.2829  -0.4755   0.4112   0.2957   0.0556

    Orbital        22       23
   1 C1  :1s    -0.0268   0.0056
   2 C1  :1s     0.1990  -0.1403
   3 C1  :1s     0.1637   0.9985
   4 C1  :2px   -0.6068   0.0940
   5 C1  :2py    0.6107  -0.0072
   6 C1  :2px    0.3578  -0.4629
   7 C1  :2py   -1.7415   0.0345
   8 C2  :1s     0.0145   0.0309
   9 C2  :1s     0.6080  -0.5432
  10 C2  :1s    -0.4861  -0.7922
  11 C2  :2px   -0.4691   0.6404
  12 C2  :2py   -0.3914  -1.0213
  13 C2  :2px    0.2547  -1.0997
  14 C2  :2py    1.9982   0.8537
  15 O3  :1s     0.0219  -0.0531
  16 O3  :1s    -0.0094   0.1424
  17 O3  :1s    -0.8447  -0.0340
  18 O3  :2px    0.1120   0.1638
  19 O3  :2py    0.0284  -0.2046
  20 O3  :2px   -0.2906   0.4273
  21 O3  :2py    0.1584  -0.6354
  23 O7  :1s    -0.0776  -0.0132
  24 O7  :1s     0.9429   0.2156
  25 O7  :2px   -0.0670  -0.0715
  26 O7  :2py   -0.1623  -0.1661
  27 O7  :2px    0.2463   0.2102
  28 O7  :2py    0.1636   0.0118
  29 H4  :1s     0.1698  -0.0171
  30 H4  :1s     0.4441  -0.1305
  31 H5  :1s    -0.1502  -0.0258
  32 H5  :1s    -0.3077   0.0791
  33 H8  :1s    -0.0595   0.0961
  34 H8  :1s     0.2156  -0.1930

 Molecular orbitals for symmetry species 2  (A" )
 ------------------------------------------------

    Orbital         1        2        3        4        5        6        7
   1 C1  :2pz    0.2461   0.3647   0.0783   0.0311  -0.3434   0.4338  -0.6937
   2 C1  :2pz    0.1020   0.2271   0.0399   0.3116  -1.5543  -0.8674   1.8533
   3 C2  :2pz    0.2773  -0.0892  -0.1851   0.4957   0.1794   0.8622   0.6002
   4 C2  :2pz    0.1425  -0.0771  -0.1209   0.6108   0.5739  -0.7651  -1.3542
   5 O3  :2pz    0.2261  -0.1017  -0.4649  -0.3488  -0.0979   0.0639   0.0944
   6 O3  :2pz    0.1375  -0.0649  -0.3611  -0.4676  -0.2212   0.0362   0.1932
   7 O7  :2pz    0.3464  -0.3546   0.3783  -0.1860  -0.1201   0.0584   0.1568
   8 O7  :2pz    0.2374  -0.2671   0.3306  -0.2544  -0.1518   0.0841   0.0998
   9 H5  :1s     0.1220   0.2020   0.0528  -0.1058   0.0217   0.2906  -0.3284
  10 H5  :1s     0.0857   0.1370   0.0660  -0.5123   1.6128   0.2232  -0.3879

    Orbital         8        9       10
   1 C1  :2pz   -0.6972  -0.4880  -0.1418
   2 C1  :2pz    0.6556   0.8939  -0.2449
   3 C2  :2pz   -0.0417   0.0553  -0.1857
   4 C2  :2pz    0.1496  -0.4572   1.0197
   5 O3  :2pz   -0.3714   0.2102   0.8823
   6 O3  :2pz    0.3315  -0.1309  -1.2811
   7 O7  :2pz    0.3824  -0.8071   0.3333
   8 O7  :2pz   -0.4671   1.0316  -0.6140
   9 H5  :1s     0.7251   0.4023   0.2301
  10 H5  :1s    -0.9772  -0.8552  -0.1769

  Total CPU  time used in SIRIUS :   0.19 seconds
  Total wall time used in SIRIUS :   0.19 seconds

 
     Date and time (Linux)  : Mon May  4 22:26:40 2026
     Host name              : debian                                  


                     .---------------------------------------.
                     | End of Wave Function Section (SIRIUS) |
                     `---------------------------------------'

  Total CPU  time used in DALTON:   0.24 seconds
  Total wall time used in DALTON:   0.24 seconds

 
     Date and time (Linux)  : Mon May  4 22:26:40 2026
     Host name              : debian                                  
