 argument  1 = ch3cooh_acetic_acid_dft_b3lyp_sto-3g.nw
                                         
                                         


             Northwest Computational Chemistry Package (NWChem) 7.2.3
             --------------------------------------------------------


                    Environmental Molecular Sciences Laboratory
                       Pacific Northwest National Laboratory
                                Richland, WA 99352

                              Copyright (c) 1994-2022
                       Pacific Northwest National Laboratory
                            Battelle Memorial Institute

             NWChem is an open-source computational chemistry package
                        distributed under the terms of the
                      Educational Community License (ECL) 2.0
             A copy of the license is included with this distribution
                              in the LICENSE.TXT file

                                  ACKNOWLEDGMENT
                                  --------------

            This software and its documentation were developed at the
            EMSL at Pacific Northwest National Laboratory, a multiprogram
            national laboratory, operated for the U.S. Department of Energy
            by Battelle under Contract Number DE-AC05-76RL01830. Support
            for this work was provided by the Department of Energy Office
            of Biological and Environmental Research, Office of Basic
            Energy Sciences, and the Office of Advanced Scientific Computing.


           Job information
           ---------------

    hostname        = debian
    program         = nwchem
    date            = Tue May  5 14:10:22 2026

    compiled        = Mon_May_12_21:20:53_2025
    source          = /build/reproducible-path/nwchem-7.2.3/build-openmpi
    nwchem branch   = 7.2.3
    nwchem revision = N/A
    ga revision     = N/A
    use scalapack   = T
    input           = ch3cooh_acetic_acid_dft_b3lyp_sto-3g.nw
    prefix          = acetic_acid.
    data base       = ./acetic_acid.db
    status          = startup
    nproc           =        1
    time left       =     -1s



           Memory information
           ------------------

    heap     =   32768000 doubles =    250.0 Mbytes
    stack    =   32767997 doubles =    250.0 Mbytes
    global   =   65536000 doubles =    500.0 Mbytes (distinct from heap & stack)
    total    =  131071997 doubles =   1000.0 Mbytes
    verify   = yes
    hardfail = no 


           Directory information
           ---------------------

  0 permanent = .
  0 scratch   = .




                                NWChem Input Module
                                -------------------



 Scaling coordinates for geometry "geometry" by  1.889725989
 (inverse scale =  0.529177249)

 C1  symmetry detected

          ------
          auto-z
          ------
  no constraints, skipping    0.0000000000000000     
  no constraints, skipping    0.0000000000000000     


                             Geometry "geometry" -> ""
                             -------------------------

 Output coordinates in angstroms (scale by  1.889725989 to convert to a.u.)

  No.       Tag          Charge          X              Y              Z
 ---- ---------------- ---------- -------------- -------------- --------------
    1 C1                   6.0000     0.07092645    -1.44887907     0.00000000
    2 C2                   6.0000     0.13078334     0.10851046     0.00000000
    3 O3                   8.0000     1.14585097     0.83974962     0.00000000
    4 H4                   1.0000     1.09230999    -1.85576561     0.00000000
    5 H5                   1.0000    -0.46470527    -1.80730433     0.89300000
    6 H6                   1.0000    -0.46470527    -1.80730433    -0.89300000
    7 O7                   8.0000    -1.19137737     0.64241313     0.00000000
    8 H8                   1.0000    -1.00894691     1.65528387     0.00000000

      Atomic Mass 
      ----------- 

      C1                12.000000
      C2                12.000000
      O3                15.994910
      H4                 1.007825
      H5                 1.007825
      H6                 1.007825
      O7                15.994910
      H8                 1.007825


 Effective nuclear repulsion energy (a.u.)     116.6731502590

            Nuclear Dipole moment (a.u.) 
            ----------------------------
        X                 Y               Z
 ---------------- ---------------- ----------------
     0.0000000000    -0.0000000000     0.0000000000



                                Z-matrix (autoz)
                                -------- 

 Units are Angstrom for bonds and degrees for angles

      Type          Name      I     J     K     L     M      Value
      ----------- --------  ----- ----- ----- ----- ----- ----------
    1 Stretch                  1     2                       1.55854
    2 Stretch                  1     4                       1.09945
    3 Stretch                  1     5                       1.10128
    4 Stretch                  1     6                       1.10128
    5 Stretch                  2     3                       1.25103
    6 Stretch                  2     7                       1.42589
    7 Stretch                  7     8                       1.02917
    8 Bend                     1     2     3               127.96943
    9 Bend                     1     2     7               109.78836
   10 Bend                     2     1     4               109.51973
   11 Bend                     2     1     5               110.11476
   12 Bend                     2     1     6               110.11476
   13 Bend                     2     7     8               101.77918
   14 Bend                     3     2     7               122.24222
   15 Bend                     4     1     5               109.35319
   16 Bend                     4     1     6               109.35319
   17 Bend                     5     1     6               108.36286
   18 Torsion                  1     2     7     8         180.00000
   19 Torsion                  3     2     1     4           0.00000
   20 Torsion                  3     2     1     5         120.28296
   21 Torsion                  3     2     1     6        -120.28296
   22 Torsion                  3     2     7     8          -0.00000
   23 Torsion                  4     1     2     7         180.00000
   24 Torsion                  5     1     2     7         -59.71704
   25 Torsion                  6     1     2     7          59.71704


            XYZ format geometry
            -------------------
     8
 geometry
 C1                    0.07092645    -1.44887907     0.00000000
 C2                    0.13078334     0.10851046     0.00000000
 O3                    1.14585097     0.83974962     0.00000000
 H4                    1.09230999    -1.85576561     0.00000000
 H5                   -0.46470527    -1.80730433     0.89300000
 H6                   -0.46470527    -1.80730433    -0.89300000
 O7                   -1.19137737     0.64241313     0.00000000
 H8                   -1.00894691     1.65528387     0.00000000

 ==============================================================================
                                internuclear distances
 ------------------------------------------------------------------------------
       center one      |      center two      | atomic units |  angstroms
 ------------------------------------------------------------------------------
    2 C2               |   1 C1               |     2.94521  |     1.55854
    3 O3               |   2 C2               |     2.36410  |     1.25103
    4 H4               |   1 C1               |     2.07765  |     1.09945
    5 H5               |   1 C1               |     2.08112  |     1.10128
    6 H6               |   1 C1               |     2.08112  |     1.10128
    7 O7               |   2 C2               |     2.69454  |     1.42589
    8 H8               |   7 O7               |     1.94485  |     1.02917
 ------------------------------------------------------------------------------
                         number of included internuclear distances:          7
 ==============================================================================



 ==============================================================================
                                 internuclear angles
 ------------------------------------------------------------------------------
        center 1       |       center 2       |       center 3       |  degrees
 ------------------------------------------------------------------------------
    2 C2               |   1 C1               |   4 H4               |   109.52
    2 C2               |   1 C1               |   5 H5               |   110.11
    2 C2               |   1 C1               |   6 H6               |   110.11
    4 H4               |   1 C1               |   5 H5               |   109.35
    4 H4               |   1 C1               |   6 H6               |   109.35
    5 H5               |   1 C1               |   6 H6               |   108.36
    1 C1               |   2 C2               |   3 O3               |   127.97
    1 C1               |   2 C2               |   7 O7               |   109.79
    3 O3               |   2 C2               |   7 O7               |   122.24
    2 C2               |   7 O7               |   8 H8               |   101.78
 ------------------------------------------------------------------------------
                            number of included internuclear angles:         10
 ==============================================================================



                      Basis "ao basis" -> "" (cartesian)
                      -----
  C (Carbon)
  ----------
            Exponent  Coefficients 
       -------------- ---------------------------------------------------------
  1 S  7.16168370E+01  0.154329
  1 S  1.30450960E+01  0.535328
  1 S  3.53051220E+00  0.444635

  2 S  2.94124940E+00 -0.099967
  2 S  6.83483100E-01  0.399513
  2 S  2.22289900E-01  0.700115

  3 P  2.94124940E+00  0.155916
  3 P  6.83483100E-01  0.607684
  3 P  2.22289900E-01  0.391957

  O (Oxygen)
  ----------
            Exponent  Coefficients 
       -------------- ---------------------------------------------------------
  1 S  1.30709320E+02  0.154329
  1 S  2.38088610E+01  0.535328
  1 S  6.44360830E+00  0.444635

  2 S  5.03315130E+00 -0.099967
  2 S  1.16959610E+00  0.399513
  2 S  3.80389000E-01  0.700115

  3 P  5.03315130E+00  0.155916
  3 P  1.16959610E+00  0.607684
  3 P  3.80389000E-01  0.391957

  H (Hydrogen)
  ------------
            Exponent  Coefficients 
       -------------- ---------------------------------------------------------
  1 S  3.42525091E+00  0.154329
  1 S  6.23913730E-01  0.535328
  1 S  1.68855400E-01  0.444635



 Summary of "ao basis" -> "" (cartesian)
 ------------------------------------------------------------------------------
       Tag                 Description            Shells   Functions and Types
 ---------------- ------------------------------  ------  ---------------------
 C                           sto-3g                  3        5   2s1p
 O                           sto-3g                  3        5   2s1p
 H                           sto-3g                  1        1   1s



                                 NWChem DFT Module
                                 -----------------



  Caching 1-el integrals 
  WARNING: movecs_in_org=atomic not equal to movecs_in=./acetic_acid.movecs
   Time after variat. SCF:      0.1
   Time prior to 1st pass:      0.1

           Memory utilization after 1st SCF pass: 
           Heap Space remaining (MW):       31.77            31766736
          Stack Space remaining (MW):       32.77            32767644

   convergence    iter        energy       DeltaE   RMS-Dens  Diis-err    time
 ---------------- ----- ----------------- --------- --------- ---------  ------
 d= 0,ls=0.0,diis     1   -225.7760583120 -3.42D+02  1.23D-01  1.37D+00     0.8
 d= 0,ls=0.0,diis     2   -224.9987533415  7.77D-01  9.35D-02  7.67D+00     1.0
 d= 0,ls=0.0,diis     3   -225.9528382139 -9.54D-01  2.90D-02  4.01D-01     1.2
 d= 0,ls=0.0,diis     4   -226.0052657117 -5.24D-02  7.78D-03  4.66D-02     1.4
 d= 0,ls=0.0,diis     5   -226.0122388559 -6.97D-03  7.09D-04  2.80D-04     1.6
  Resetting Diis
 d= 0,ls=0.0,diis     6   -226.0122743097 -3.55D-05  2.45D-04  4.08D-05     1.8
 d= 0,ls=0.0,diis     7   -226.0122803670 -6.06D-06  6.21D-05  3.65D-07     2.1
 d= 0,ls=0.0,diis     8   -226.0122802943  7.27D-08  4.23D-05  8.53D-07     2.3
 d= 0,ls=0.0,diis     9   -226.0122804224 -1.28D-07  1.05D-05  8.66D-08     2.6
 d= 0,ls=0.0,diis    10   -226.0122804340 -1.16D-08  2.29D-06  3.43D-09     2.8


         Total DFT energy =     -226.012280434024
      One electron energy =     -541.175801207103
           Coulomb energy =      228.013733349192
    Exchange-Corr. energy =      -29.523362835116
 Nuclear repulsion energy =      116.673150259003

 Numeric. integr. density =       32.000003080500

     Total iterative time =      2.7s



 Task  times  cpu:        2.6s     wall:        2.8s
 Summary of allocated global arrays
-----------------------------------
  No active global arrays


MA_summarize_allocated_blocks: starting scan ...
MA_summarize_allocated_blocks: scan completed: 0 heap blocks, 0 stack blocks
MA usage statistics:

	allocation statistics:
					      heap	     stack
					      ----	     -----
	current number of blocks	         0	         0
	maximum number of blocks	        21	        53
	current total bytes		         0	         0
	maximum total bytes		   8010000	  22511624
	maximum total K-bytes		      8010	     22512
	maximum total M-bytes		         9	        23


                                NWChem Input Module
                                -------------------




                                     CITATION
                                     --------
                Please cite the following reference when publishing
                           results obtained with NWChem:

          E. Apra, E. J. Bylaska, W. A. de Jong, N. Govind, K. Kowalski,
       T. P. Straatsma, M. Valiev, H. J. J. van Dam, Y. Alexeev, J. Anchell,
       V. Anisimov, F. W. Aquino, R. Atta-Fynn, J. Autschbach, N. P. Bauman,
     J. C. Becca, D. E. Bernholdt, K. Bhaskaran-Nair, S. Bogatko, P. Borowski,
         J. Boschen, J. Brabec, A. Bruner, E. Cauet, Y. Chen, G. N. Chuev,
      C. J. Cramer, J. Daily, M. J. O. Deegan, T. H. Dunning Jr., M. Dupuis,
   K. G. Dyall, G. I. Fann, S. A. Fischer, A. Fonari, H. Fruchtl, L. Gagliardi,
      J. Garza, N. Gawande, S. Ghosh, K. Glaesemann, A. W. Gotz, J. Hammond,
       V. Helms, E. D. Hermes, K. Hirao, S. Hirata, M. Jacquelin, L. Jensen,
   B. G. Johnson, H. Jonsson, R. A. Kendall, M. Klemm, R. Kobayashi, V. Konkov,
      S. Krishnamoorthy, M. Krishnan, Z. Lin, R. D. Lins, R. J. Littlefield,
      A. J. Logsdail, K. Lopata, W. Ma, A. V. Marenich, J. Martin del Campo,
   D. Mejia-Rodriguez, J. E. Moore, J. M. Mullin, T. Nakajima, D. R. Nascimento,
    J. A. Nichols, P. J. Nichols, J. Nieplocha, A. Otero-de-la-Roza, B. Palmer,
    A. Panyala, T. Pirojsirikul, B. Peng, R. Peverati, J. Pittner, L. Pollack,
   R. M. Richard, P. Sadayappan, G. C. Schatz, W. A. Shelton, D. W. Silverstein,
   D. M. A. Smith, T. A. Soares, D. Song, M. Swart, H. L. Taylor, G. S. Thomas,
            V. Tipparaju, D. G. Truhlar, K. Tsemekhman, T. Van Voorhis,
      A. Vazquez-Mayagoitia, P. Verma, O. Villa, A. Vishnu, K. D. Vogiatzis,
        D. Wang, J. H. Weare, M. J. Williamson, T. L. Windus, K. Wolinski,
        A. T. Wong, Q. Wu, C. Yang, Q. Yu, M. Zacharias, Z. Zhang, Y. Zhao,
                                and R. J. Harrison
                        "NWChem: Past, present, and future
                         J. Chem. Phys. 152, 184102 (2020)
                               doi:10.1063/5.0004997

                                      AUTHORS
                                      -------
  E. Apra, E. J. Bylaska, N. Govind, K. Kowalski, M. Valiev, D. Mejia-Rodriguez,
       A. Kunitsa, N. P. Bauman, A. Panyala, W. A. de Jong, T. P. Straatsma,
   H. J. J. van Dam, D. Wang, T. L. Windus, J. Hammond, J. Autschbach, A. Woods,
    K. Bhaskaran-Nair, J. Brabec, K. Lopata, S. A. Fischer, S. Krishnamoorthy,
     M. Jacquelin, W. Ma, M. Klemm, O. Villa, Y. Chen, V. Anisimov, F. Aquino,
     S. Hirata, M. T. Hackler, E. Hermes, L. Jensen, J. E. Moore, J. C. Becca,
      V. Konjkov, T. Risthaus, M. Malagoli, A. Marenich, A. Otero-de-la-Roza,
        J. Mullin, P. Nichols, R. Peverati, J. Pittner, Y. Zhao, P.-D. Fan,
        A. Fonari, M. J. Williamson, R. J. Harrison, J. R. Rehr, M. Dupuis,
     D. Silverstein, D. M. A. Smith, J. Nieplocha, V. Tipparaju, M. Krishnan,
     B. E. Van Kuiken, A. Vazquez-Mayagoitia, M. Swart, Q. Wu, T. Van Voorhis,
     A. A. Auer, M. Nooijen, L. D. Crosby, E. Brown, G. Cisneros, G. I. Fann,
   H. Fruchtl, J. Garza, K. Hirao, R. A. Kendall, J. A. Nichols, K. Tsemekhman,
    K. Wolinski, J. Anchell, D. E. Bernholdt, P. Borowski, T. Clark, D. Clerc,
   H. Dachsel, M. J. O. Deegan, K. Dyall, D. Elwood, E. Glendening, M. Gutowski,
   A. C. Hess, J. Jaffe, B. G. Johnson, J. Ju, R. Kobayashi, R. Kutteh, Z. Lin,
   R. Littlefield, X. Long, B. Meng, T. Nakajima, S. Niu, L. Pollack, M. Rosing,
   K. Glaesemann, G. Sandrone, M. Stave, H. Taylor, G. Thomas, J. H. van Lenthe,
                               A. T. Wong, Z. Zhang.

 Total times  cpu:        2.6s     wall:        2.8s
