

     ************************************************************************
     *************** Dalton - An Electronic Structure Program ***************
     ************************************************************************

    This is output from DALTON release Dalton2025.0-dev (2025)
         ( Web site: http://daltonprogram.org )

   ----------------------------------------------------------------------------

    NOTE:
     
    Dalton is an experimental code for the evaluation of molecular
    properties using (MC)SCF, DFT, CI, and CC wave functions.
    The authors accept no responsibility for the performance of
    the code or for the correctness of the results.
     
    The code (in whole or part) is provided under a licence and
    is not to be reproduced for further distribution without
    the written permission of the authors or their representatives.
     
    See the home page "http://daltonprogram.org" for further information.
     
    If results obtained with this code are published,
    the appropriate citations would be both of:
     
       K. Aidas, C. Angeli, K. L. Bak, V. Bakken,
       R. Bast, L. Boman, O. Christiansen, R. Cimiraglia,
       S. Coriani, P. Dahle, E. K. Dalskov, U. Ekstroem,
       T. Enevoldsen, J. J. Eriksen, P. Ettenhuber, B. Fernandez,
       L. Ferrighi, H. Fliegl, L. Frediani, K. Hald, A. Halkier,
       C. Haettig, H. Heiberg, T. Helgaker, A. C. Hennum,
       H. Hettema, E. Hjertenaes, S. Hoest, I.-M. Hoeyvik,
       M. F. Iozzi, B. Jansik, H. J. Aa. Jensen, D. Jonsson,
       P. Joergensen, J. Kauczor, S. Kirpekar,
       T. Kjaergaard, W. Klopper, S. Knecht, R. Kobayashi, H. Koch,
       J. Kongsted, A. Krapp, K. Kristensen, A. Ligabue,
       O. B. Lutnaes, J. I. Melo, K. V. Mikkelsen, R. H. Myhre,
       C. Neiss, C. B. Nielsen, P. Norman, J. Olsen,
       J. M. H. Olsen, A. Osted, M. J. Packer, F. Pawlowski,
       T. B. Pedersen, P. F. Provasi, S. Reine, Z. Rinkevicius,
       T. A. Ruden, K. Ruud, V. Rybkin, P. Salek, C. C. M. Samson,
       A. Sanchez de Meras, T. Saue, S. P. A. Sauer,
       B. Schimmelpfennig, K. Sneskov, A. H. Steindal,
       K. O. Sylvester-Hvid, P. R. Taylor, A. M. Teale,
       E. I. Tellgren, D. P. Tew, A. J. Thorvaldsen, L. Thoegersen,
       O. Vahtras, M. A. Watson, D. J. D. Wilson, M. Ziolkowski
       and H. Agren,
       "The Dalton quantum chemistry program system",
       WIREs Comput. Mol. Sci. 2014, 4:269-284 (doi: 10.1002/wcms.1172)
     
    and
     
       Dalton, a molecular electronic structure program,
       Release Dalton2025.0-dev (2025), see http://daltonprogram.org
   ----------------------------------------------------------------------------

    Authors in alphabetical order (Major contribution(s) in parenthesis):

  Kestutis Aidas,              Vilnius University,        Lithuania   (QM/MM)
  Celestino Angeli,            University of Ferrara,     Italy       (NEVPT2)
  Juan J. Aucar,               Northeast National UniversiArgentina   (LRESC, Relativistic Effects on NMR Shieldings and EFG)
  Keld L. Bak,                 UNI-C,                     Denmark     (AOSOPPA, non-adiabatic coupling, magnetic properties)
  Vebjoern Bakken,             University of Oslo,        Norway      (DALTON; geometry optimizer, symmetry detection)
  Radovan Bast,                UiT The Arctic U. of NorwayNorway      (DALTON installation and execution frameworks)
  Pablo Baudin,                University of Valencia,    Spain       (Cholesky excitation energies)
  Linus Boman,                 NTNU,                      Norway      (Cholesky decomposition and subsystems)
  Bruno N. Cabral Tenorio,     Technical Univ. of Denmark,Denmark     (Lanczos-based CC methods)
  Ove Christiansen,            Aarhus University,         Denmark     (CC module)
  Renzo Cimiraglia,            University of Ferrara,     Italy       (NEVPT2)
  Sonia Coriani,               Technical Univ. of Denmark,Denmark     (CC and RESPONS modules)
  Janusz Cukras,               University of Warsaw,      Poland      (MChD in RESPONS)
  Paal Dahle,                  University of Oslo,        Norway      (Parallelization)
  Erik K. Dalskov,             UNI-C,                     Denmark     (SOPPA)
  Thomas Enevoldsen,           Univ. of Southern Denmark, Denmark     (SOPPA)
  Janus J. Eriksen,            Aarhus University,         Denmark     (Polarizable embedding, TDA)
  Rasmus Faber,                Technical Univ. of Denmark,Denmark     (Vib.avg. NMR w. SOPPA, parallel AO-SOPPA, CVS-CC and EOMCC)
  Tobias Fahleson,             KTH Stockholm,             Sweden      (Damped cubic response)
  Berta Fernandez,             U. of Santiago de CompostelSpain       (Doublet spin, ESR in RESPONS)
  Lara Ferrighi,               Aarhus University,         Denmark     (PCM Cubic response)
  Heike Fliegl,                University of Oslo,        Norway      (CCSD(R12))
  Luca Frediani,               UiT The Arctic U. of NorwayNorway      (PCM)
  Emmanuel Fromager,           Univ. Strasbourg,          France      (MC-srDFT)
  Bin Gao,                     UiT The Arctic U. of NorwayNorway      (Gen1Int library)
  Andre S. P. Gomes,           CNRS/Universite de Lille,  France      (Frozen density embedding)
  Christof Haettig,            Ruhr-University Bochum,    Germany     (CC module)
  Kasper Hald,                 Aarhus University,         Denmark     (CC module)
  Asger Halkier,               Aarhus University,         Denmark     (CC module)
  Frederik Beyer Hansen,       University of Copenhagen,  Denmark     (Parallel AO-SOPPA)
  Erik D. Hedegaard,           Univ. of Southern Denmark, Denmark     (Polarizable embedding, QM/MM, and MC-srDFT)
  Hanne Heiberg,               University of Oslo,        Norway      (Geometry analysis, selected one-electron integrals)
  Trygve Helgaker,             University of Oslo,        Norway      (DALTON; ABACUS, ERI, DFT modules, London, and much more)
  Alf Christian Hennum,        University of Oslo,        Norway      (Parity violation)
  Hinne Hettema,               University of Auckland,    New Zealand (Quadratic response in RESPONS; SIRIUS supersymmetry)
  Andreas E. Hillers-Bendtsen, University of Copenhagen,  Denmark     (MP3)
  Eirik Hjertenaes,            NTNU,                      Norway      (Cholesky decomposition)
  Nicolai Machholdt Hoeyer,    Aarhus University,         Denmark     (MP3)
  Pi A. B. Haase,              University of Copenhagen,  Denmark     (Triplet AO-SOPPA)
  Maria Francesca Iozzi,       University of Oslo,        Norway      (RPA)
  Christoph Jacob,             TU Braunschweig            Germany     (Frozen density embedding)
  Brano Jansik,                Technical Univ. of Ostrava Czech Rep.  (DFT cubic response)
  Hans Joergen Aa. Jensen,     Univ. of Southern Denmark, Denmark     (DALTON; SIRIUS, RESPONS, ABACUS, MC-srDFT, and much more)
  Dan Jonsson,                 UiT The Arctic U. of NorwayNorway      (Cubic response in RESPONS module)
  Poul Joergensen,             Aarhus University,         Denmark     (RESPONS, ABACUS, and CC modules)
  Maciej Kaminski,             University of Warsaw,      Poland      (CPPh in RESPONS)
  Joanna Kauczor,              Linkoeping University,     Sweden      (Complex polarization propagator (CPP) module)
  Sheela Kirpekar,             Univ. of Southern Denmark, Denmark     (Mass-velocity & Darwin integrals)
  Frederik Oersted Kjeldal,    Technical Univ. of Denmark,Denmark     (MP3)
  Erik Kjellgren,              Univ. of Southern Denmark, Denmark     (MC-srDFT)
  Wim Klopper,                 KIT Karlsruhe,             Germany     (R12 code in CC, SIRIUS, and ABACUS modules)
  Stefan Knecht,               ETH Zurich,                Switzerland (Parallel CI and MCSCF, MC-srDFT)
  Rika Kobayashi,              Australian National Univ., Australia   (DIIS in CC, London in MCSCF)
  Henrik Koch,                 NTNU,                      Norway      (CC module, Cholesky decomposition)
  Jacob Kongsted,              Univ. of Southern Denmark, Denmark     (Polarizable embedding, polarizable density embedding, QM/MM)
  Andrea Ligabue,              University of Modena,      Italy       (CTOCD, AOSOPPA)
  Nanna H. List,               Univ. of Southern Denmark, Denmark     (Polarizable embedding)
  Ola B. Lutnaes,              University of Oslo,        Norway      (DFT Hessian)
  Juan I. Melo,                University of Buenos Aires,Argentina   (LRESC, Relativistic Effects on NMR Shieldings)
  Kurt V. Mikkelsen,           University of Copenhagen,  Denmark     (MC-SCRF, QM/MM, and MP3)
  Rolf H. Myhre,               NTNU,                      Norway      (Subsystems and CC3)
  Christian Neiss,             Univ. Erlangen-Nuernberg,  Germany     (CCSD(R12))
  Christian B. Nielsen,        University of Copenhagen,  Denmark     (QM/MM)
  Patrick Norman,              KTH Stockholm,             Sweden      (Cubic response and complex frequency response in RESPONS)
  Jeppe Olsen,                 Aarhus University,         Denmark     (SIRIUS CI/density modules)
  Jogvan Magnus H. Olsen,      Aarhus University,         Denmark     (Polarizable embedding and polarizable density embedding)
  Anders Osted,                Copenhagen University,     Denmark     (QM/MM)
  Martin J. Packer,            University of Sheffield,   UK          (SOPPA)
  Filip Pawlowski,             Kazimierz Wielki UniversityPoland      (CC3)
  Morten N. Pedersen,          Univ. of Southern Denmark, Denmark     (Polarizable embedding)
  Thomas B. Pedersen,          University of Oslo,        Norway      (Cholesky decomposition)
  Patricio F. Provasi,         University of Northeastern,Argentina   (Analysis of coupling constants in localized orbitals)
  Peter Reinholdt,             Univ. of Southern Denmark, Denmark     (Polarizable embedding and polarizable density embedding)
  Zilvinas Rinkevicius,        KTH Stockholm,             Sweden      (open-shell DFT, ESR)
  Elias Rudberg,               KTH Stockholm,             Sweden      (DFT grid and basis info)
  Torgeir A. Ruden,            University of Oslo,        Norway      (Numerical derivatives in ABACUS)
  Kenneth Ruud,                UiT The Arctic U. of NorwayNorway      (DALTON; ABACUS magnetic properties and much more)
  Pawel Salek,                 KTH Stockholm,             Sweden      (DALTON; DFT code)
  Claire C. M. Samson,         University of Karlsruhe    Germany     (Boys localization, r12 integrals in ERI)
  Alfredo Sanchez de Meras,    University of Valencia,    Spain       (CC module, Cholesky decomposition)
  Trond Saue,                  Paul Sabatier University,  France      (direct Fock matrix construction)
  Stephan P. A. Sauer,         University of Copenhagen,  Denmark     (SOPPA(CCSD), SOPPA prop., AOSOPPA, vibrational g-factors)
  Bernd Schimmelpfennig,       Forschungszentrum KarlsruheGermany     (AMFI module)
  Anna K. Schnack-Petersen,    University of Copenhagen,  Denmark     (RPA(D) and HRPA(D) properties in AOSOPPA)
  Kristian Sneskov,            Aarhus University,         Denmark     (Polarizable embedding, QM/MM)
  Arnfinn H. Steindal,         UiT The Arctic U. of NorwayNorway      (parallel QM/MM, polarizable embedding)
  Casper Steinmann,            Aalborg University,        Denmark     (QFIT, polarizable embedding)
  K. O. Sylvester-Hvid,        University of Copenhagen,  Denmark     (MC-SCRF)
  Peter R. Taylor,             VLSCI/Univ. of Melbourne,  Australia   (Symmetry handling ABACUS, integral transformation)
  Andrew M. Teale,             University of Nottingham,  England     (DFT-AC, DFT-D)
  David P. Tew,                University of Bristol,     England     (CCSD(R12))
  Julien Toulouse,             Sorbonne Univ.,            France      (MC-srDFT)
  Olav Vahtras,                KTH Stockholm,             Sweden      (Triplet response, spin-orbit, ESR, TDDFT, open-shell DFT)
  Lucas Visscher,              Vrije Universiteit AmsterdaNetherlands (Frozen density embedding)
  David J. Wilson,             La Trobe University,       Australia   (DFT Hessian and DFT magnetizabilities)
  Luna Zamok,                  University of Copenhagen,  Denmark     (Block Lanczos RPA solver in SOPPA module)
  Hans Agren,                  KTH Stockholm,             Sweden      (SIRIUS module, RESPONS, MC-SCRF solvation)
 --------------------------------------------------------------------------------

     Date and time (Linux)  : Mon May  4 21:40:07 2026
     Host name              : debian                                  

 * Work memory size             :    64000000 =  488.28 megabytes.

 * Directories for basis set searches:
   1) /home/vdwv/DIPLOM_ITMO/CALCULATIONS_AND_SOFTS/softwares/Dalton_Shenanigans/dalton/dalton/build
   2) /home/vdwv/DIPLOM_ITMO/CALCULATIONS_AND_SOFTS/softwares/Dalton_Shenanigans/dalton/dalton/build/basis


Compilation information
-----------------------

 Who compiled             | vdwv
 Host                     | debian
 System                   | Linux-6.12.73+deb13-amd64
 CMake generator          | Unix Makefiles
 Processor                | x86_64
 64-bit integers          | OFF
 MPI                      | OFF
 Fortran compiler         | /usr/bin/gfortran
 Fortran compiler version | GNU Fortran (Debian 14.2.0-19) 14.2.0
 C compiler               | /usr/bin/gcc
 C compiler version       | gcc (Debian 14.2.0-19) 14.2.0
 C++ compiler             | /usr/bin/g++
 C++ compiler version     | g++ (Debian 14.2.0-19) 14.2.0
 BLAS                     | /opt/intel/oneapi/mkl/2025.3/lib/intel64/libmkl_gf
                          | _lp64.so;/opt/intel/oneapi/mkl/2025.3/lib/intel64/
                          | libmkl_sequential.so;/opt/intel/oneapi/mkl/2025.3/
                          | lib/intel64/libmkl_core.so;/usr/lib/x86_64-linux-g
                          | nu/libpthread.a;/usr/lib/x86_64-linux-gnu/libm.so
 LAPACK                   | /opt/intel/oneapi/mkl/2025.3/lib/intel64/libmkl_la
                          | pack95_lp64.a;/opt/intel/oneapi/mkl/2025.3/lib/int
                          | el64/libmkl_gf_lp64.so
 Static linking           | OFF
 Last Git revision        | 1892235f9264b9be21ec2fefe6e0081d659ab244
 Git branch               | master
 Configuration time       | 2026-05-04 17:50:26.788788

 * Sequential calculation.


   Content of the .dal input file
 ----------------------------------

BASIS
3-21G
Phosgene CCl2O using the 3-21G basis
Using automatic symmetry detection
AtomTypes=3 Angstrom
Charge=8.0 Atoms=1
O      0.000      0.000      1.712
Charge=6.0 Atoms=1
C      0.000      0.000      0.548
Charge=17.0 Atoms=2
Cl1    0.000      1.501     -0.500
Cl2    0.000     -1.501     -0.500

**DALTON INPUT
.RUN WAVE FUN
**WAVE FUN
.HF
**END OF


       *******************************************************************
       *********** Output from DALTON general input processing ***********
       *******************************************************************

 --------------------------------------------------------------------------------
   Overall default print level:    0
   Print level for DALTON.STAT:    1

    HERMIT 1- and 2-electron integral sections will be executed
    "Old" integral transformation used (limited to max 255 basis functions)
    Wave function sections will be executed (SIRIUS module)
 --------------------------------------------------------------------------------


   ****************************************************************************
   *************** Output of molecule and basis set information ***************
   ****************************************************************************


    The two title cards from your ".mol" input:
    --------------------------------------------------------------------------------
 1: Phosgene CCl2O using the 3-21G basis
 2: Using automatic symmetry detection
    --------------------------------------------------------------------------------

  Coordinates are entered in Angstrom and converted to atomic units.
          - Conversion factor : 1 bohr = 0.52917721080 A

  Atomic type no.    1
  --------------------
  Nuclear charge:   8.00000
  Number of symmetry independent centers:    1
  Number of basis sets to read;    2
  Basis set file used for this atomic type with Z =   8 :
     "/home/vdwv/DIPLOM_ITMO/CALCULATIONS_AND_SOFTS/softwares/Dalton_Shenanigans/dalton/dalton/build/basis/3-21G"

  Info about the basis set file: your basis has no documentation.
  Basis set: 3-21G                                                                           

  Atomic type no.    2
  --------------------
  Nuclear charge:   6.00000
  Number of symmetry independent centers:    1
  Number of basis sets to read;    2
  Basis set file used for this atomic type with Z =   6 :
     "/home/vdwv/DIPLOM_ITMO/CALCULATIONS_AND_SOFTS/softwares/Dalton_Shenanigans/dalton/dalton/build/basis/3-21G"

  Info about the basis set file: your basis has no documentation.
  Basis set: 3-21G                                                                           

  Atomic type no.    3
  --------------------
  Nuclear charge:  17.00000
  Number of symmetry independent centers:    2
  Number of basis sets to read;    2
  Basis set file used for this atomic type with Z =  17 :
     "/home/vdwv/DIPLOM_ITMO/CALCULATIONS_AND_SOFTS/softwares/Dalton_Shenanigans/dalton/dalton/build/basis/3-21G"

  Info about the basis set file: your basis has no documentation.
  Basis set: 3-21G                                                                           


                      SYMADD: Addition of symmetry requested
                      --------------------------------------

 Symmetry test threshold:  5.00E-06

@  The molecule has been centered at center of mass and rotated
@  so the principal axes of inertia are along coordinate axes.

 Symmetry class found: C(2v)          

 Symmetry Independent Centres             
 ----------------------------
Cl2   17 :      0.00000000     2.83647891     0.92538243  Isotope  1
O      8 :      0.00000000     0.00000000    -3.25469176  Isotope  1
C      6 :      0.00000000     0.00000000    -1.05505055  Isotope  1

 The following symmetry elements were found:   X  Y     


                         SYMGRP: Point group information
                         -------------------------------

@    Full point group is: C(2v)          
@    Represented as:      C2v

@  * The irrep name for each symmetry:    1: A1     2: B1     3: B2     4: A2 

   * The point group was generated by:

      Reflection in the yz-plane
      Reflection in the xz-plane

   * Group multiplication table

        |  E   C2z  Oxz  Oyz
   -----+--------------------
     E  |  E   C2z  Oxz  Oyz
    C2z | C2z   E   Oyz  Oxz
    Oxz | Oxz  Oyz   E   C2z
    Oyz | Oyz  Oxz  C2z   E 

   * Character table

        |  E   C2z  Oxz  Oyz
   -----+--------------------
    A1  |   1    1    1    1
    B1  |   1   -1    1   -1
    B2  |   1   -1   -1    1
    A2  |   1    1   -1   -1

   * Direct product table

        | A1   B1   B2   A2 
   -----+--------------------
    A1  | A1   B1   B2   A2 
    B1  | B1   A1   A2   B2 
    B2  | B2   A2   A1   B1 
    A2  | A2   B2   B1   A1 


                                 Isotopic Masses
                                 ---------------

                           O          15.994915
                           C          12.000000
                           Cl2 _1     34.968853
                           Cl2 _2     34.968853

                       Total mass:    97.932621 amu
                       Natural abundance:  56.643 %

 Center-of-mass coordinates (a.u.):    0.000000    0.000000    0.000000
 Center-of-mass coordinates (Angs):    0.000000    0.000000    0.000000


  Atoms and basis sets
  --------------------

  Number of atom types :    3
  Total number of atoms:    4

  Basis set used is "3-21G" from the basis set library.

  label    atoms   charge   prim   cont     basis
  ----------------------------------------------------------------------
  O           1    8.0000    15     9      [6s3p|3s2p]                                        
  C           1    6.0000    15     9      [6s3p|3s2p]                                        
  Cl          2   17.0000    27    13      [9s6p|4s3p]                                        
  ----------------------------------------------------------------------
  total:      4   48.0000    84    44
  ----------------------------------------------------------------------
  Spherical harmonic basis used.

  Threshold for neglecting AO integrals:  1.00D-12


  Cartesian Coordinates (bohr)
  ----------------------------

  Total number of coordinates:   12
  O       :     1  x   0.0000000000    2  y   0.0000000000    3  z  -3.2546917555
  C       :     4  x   0.0000000000    5  y   0.0000000000    6  z  -1.0550505460
  Cl2 / 1 :     7  x   0.0000000000    8  y   2.8364789136    9  z   0.9253824330
  Cl2 / 2 :    10  x   0.0000000000   11  y  -2.8364789136   12  z   0.9253824330


  Cartesian Coordinates (xyz format; angstrom)
  --------------------------------------------

    4

  O        0.0000000000            0.0000000000           -1.7223087052
  C        0.0000000000            0.0000000000           -0.5583087052
 Cl        0.0000000000            1.5010000000            0.4896912948
 Cl        0.0000000000           -1.5010000000            0.4896912948


  Symmetry Coordinates
  --------------------

  Number of coordinates in each symmetry:     4    3    4    1

  Symmetry  A1  ( 1)

    1   O     z    3
    2   C     z    6
    3   Cl2   y    [  8  -   11 ]/2
    4   Cl2   z    [  9  +   12 ]/2

  Symmetry  B1  ( 2)

    5   O     x    1
    6   C     x    4
    7   Cl2   x    [  7  +   10 ]/2

  Symmetry  B2  ( 3)

    8   O     y    2
    9   C     y    5
   10   Cl2   y    [  8  +   11 ]/2
   11   Cl2   z    [  9  -   12 ]/2

  Symmetry  A2  ( 4)

   12   Cl2   x    [  7  -   10 ]/2


   Interatomic separations (in Angstrom):
   --------------------------------------

            O           C           Cl2 _1      Cl2 _2
            ------      ------      ------      ------
 O     :    0.000000
 C     :    1.164000    0.000000
 Cl2 _1:    2.673190    1.830657    0.000000
 Cl2 _2:    2.673190    1.830657    3.002000    0.000000


  Max    interatomic separation is    3.0020 Angstrom (    5.6730 Bohr)
  between atoms    4 and    3, "Cl2 _2" and "Cl2 _1".

  Min YX interatomic separation is    1.1640 Angstrom (    2.1996 Bohr)


  Bond distances (Angstrom):
  --------------------------

                  atom 1     atom 2       distance
                  ------     ------       --------
  bond distance:  C          O            1.164000
  bond distance:  Cl2 _1     C            1.830657
  bond distance:  Cl2 _2     C            1.830657


  Bond angles (degrees):
  ----------------------

                  atom 1     atom 2     atom 3         angle
                  ------     ------     ------         -----
  bond angle:     O          C          Cl2 _1       124.923
  bond angle:     O          C          Cl2 _2       124.923
  bond angle:     Cl2 _1     C          Cl2 _2       110.154




 Principal moments of inertia (u*A**2) and principal axes
 --------------------------------------------------------

   IA      67.957867          0.000000    1.000000    0.000000
   IB     157.569722          0.000000    0.000000    1.000000
   IC     225.527589          1.000000    0.000000    0.000000


 Rotational constants
 --------------------

@    The molecule is planar.

               A                   B                   C

           7436.6519           3207.3358           2240.8744 MHz
            0.248060            0.106985            0.074748 cm-1


@  Nuclear repulsion energy :  185.578616931945 Hartree


  Symmetry Orbitals
  -----------------

  Number of orbitals in each symmetry:          20    7   14    3


  Symmetry  A1 ( 1)

    1     O        1s         1
    2     O        1s         2
    3     O        1s         3
    4     O        2pz        6
    5     O        2pz        9
    6     C        1s        10
    7     C        1s        11
    8     C        1s        12
    9     C        2pz       15
   10     C        2pz       18
   11     Cl2      1s        19 +   20
   12     Cl2      1s        21 +   22
   13     Cl2      1s        23 +   24
   14     Cl2      1s        25 +   26
   15     Cl2      2py       29 -   30
   16     Cl2      2pz       31 +   32
   17     Cl2      2py       35 -   36
   18     Cl2      2pz       37 +   38
   19     Cl2      2py       41 -   42
   20     Cl2      2pz       43 +   44


  Symmetry  B1 ( 2)

   21     O        2px        4
   22     O        2px        7
   23     C        2px       13
   24     C        2px       16
   25     Cl2      2px       27 +   28
   26     Cl2      2px       33 +   34
   27     Cl2      2px       39 +   40


  Symmetry  B2 ( 3)

   28     O        2py        5
   29     O        2py        8
   30     C        2py       14
   31     C        2py       17
   32     Cl2      1s        19 -   20
   33     Cl2      1s        21 -   22
   34     Cl2      1s        23 -   24
   35     Cl2      1s        25 -   26
   36     Cl2      2py       29 +   30
   37     Cl2      2pz       31 -   32
   38     Cl2      2py       35 +   36
   39     Cl2      2pz       37 -   38
   40     Cl2      2py       41 +   42
   41     Cl2      2pz       43 -   44


  Symmetry  A2 ( 4)

   42     Cl2      2px       27 -   28
   43     Cl2      2px       33 -   34
   44     Cl2      2px       39 -   40

  Symmetries of electric field:  B1 (2)  B2 (3)  A1 (1)

  Symmetries of magnetic field:  B2 (3)  B1 (2)  A2 (4)


                     .---------------------------------------.
                     | Starting in Integral Section (HERMIT) |
                     `---------------------------------------'



 ***************************************************************************************
 ****************** Output from **INTEGRALS input processing (HERMIT) ******************
 ***************************************************************************************


 - Using defaults, no **INTEGRALS input found

 Default print level:        1

 Calculation of one- and two-electron Hamiltonian integrals.

 Center of mass  (bohr):      0.000000000000      0.000000000000      0.000000000000
 Operator center (bohr):      0.000000000000      0.000000000000      0.000000000000
 Gauge origin    (bohr):      0.000000000000      0.000000000000      0.000000000000
 Dipole origin   (bohr):      0.000000000000      0.000000000000      0.000000000000

Calculation of 2-electron integrals are postponed until they are needed.


     ************************************************************************
     ************************** Output from HERINT **************************
     ************************************************************************



                      Nuclear contribution to dipole moments
                      --------------------------------------

                 au               Debye          C m (/(10**-30)

      z     -0.90483460        -2.29986000        -7.67150721


  Total CPU  time used in HERMIT:   0.02 seconds
  Total wall time used in HERMIT:   0.02 seconds


                        .----------------------------------.
                        | End of Integral Section (HERMIT) |
                        `----------------------------------'



                   .--------------------------------------------.
                   | Starting in Wave Function Section (SIRIUS) |
                   `--------------------------------------------'


 *** Output from Huckel module :

     Using EWMO model:          F
     Using EHT  model:          T
     Number of Huckel orbitals each symmetry:   16    6   12    4

 Huckel EHT eigenvalues for symmetry :  1
         -104.886210     -20.709377     -11.374647     -10.617026      -8.073579
           -8.072311      -1.508363      -1.210804      -0.764338      -0.593322
           -0.508491      -0.325158      -0.194024      -0.056312      -0.052777
           -0.033518

 Huckel EHT eigenvalues for symmetry :  2
           -8.072404      -0.703935      -0.529030      -0.317169      -0.056240
           -0.049935

 Huckel EHT eigenvalues for symmetry :  3
         -104.886584     -10.616912      -8.073155      -8.072070      -1.133452
           -0.681082      -0.495938      -0.464301      -0.247237      -0.054862
           -0.051588      -0.046696

 Huckel EHT eigenvalues for symmetry :  4
           -8.072195      -0.492466      -0.055284      -0.053867

HUCDRV: reduced number of huckel orbitals in sym 4 from 4 to 3

 **********************************************************************
 *SIRIUS* a direct, restricted step, second order MCSCF program       *
 **********************************************************************

 
     Date and time (Linux)  : Mon May  4 21:40:07 2026
     Host name              : debian                                  

 Title lines from ".mol" input file:
     Phosgene CCl2O using the 3-21G basis
     Using automatic symmetry detection

 Print level on unit LUPRI =   2 is   0
 Print level on unit LUW4  =   2 is   5

@    Restricted, closed shell Hartree-Fock calculation.

 Initial molecular orbitals are obtained according to
 ".MOSTART EHT   " input option

     Wave function specification
     ============================
@    Wave function type        --- HF ---
@    Number of closed shell electrons          48
@    Number of electrons in active shells       0
@    Total charge of the molecule               0

@    Spin multiplicity and 2 M_S                1         0
@    Total number of symmetries                 4 (point group: C2v)
@    Reference state symmetry                   1 (irrep name : A1 )

     Orbital specifications
     ======================
@    Abelian symmetry species          All |    1    2    3    4
@                                          |  A1   B1   B2   A2 
                                       --- |  ---  ---  ---  ---
@    Total number of orbitals           44 |   20    7   14    3
@    Number of basis functions          44 |   20    7   14    3

      ** Automatic occupation of RHF orbitals **

      -- Initial occupation of symmetries is determined from extended Huckel guess.           
      -- Initial occupation of symmetries is :
@    Occupied SCF orbitals              24 |   11    3    8    2

     Maximum number of Fock   iterations      0
     Maximum number of DIIS   iterations     60
     Maximum number of QC-SCF iterations     60
     Threshold for SCF convergence     1.00D-05


 ***********************************************
 ***** DIIS acceleration of SCF iterations *****
 ***********************************************

 C1-DIIS algorithm; max error vectors =    8

 Automatic occupation of symmetries with  48 electrons.

 Iter     Total energy    Error norm  Delta(E)    SCF occupation
 -----------------------------------------------------------------------------

Calculating AOSUPINT

---> (Re)generating AOTWOINT


     ************************************************************************
     ************************** Output from HERINT **************************
     ************************************************************************


***  INFO  GETGAB: GABSO--- not found on AOGABINT. Regenerating.

 Threshold for neglecting two-electron integrals:  1.00D-12
 HERMIT - Number of two-electron integrals written:      112471 ( 22.9% )
 HERMIT - Megabytes written:                              1.373

     (Precalculated AO two-electron integrals are transformed to P-supermatrix elements.
      Threshold for discarding integrals :  1.00D-12 )

@  1  -1026.13153071       3.38D+00  -1.03D+03    11   3   8   2
      Virial theorem: -V/T =      1.999329
@    MULPOP   O      -0.60; C       0.72; Cl2 _1 -0.06; Cl2 _2 -0.06; 
   1  Level shift: doubly occupied orbital energies shifted by -2.00D-01
 -----------------------------------------------------------------------------
@  2  -1026.56869534       1.20D+00  -4.37D-01    11   3   8   2
      Virial theorem: -V/T =      2.001503
@    MULPOP   O      -0.01; C      -0.35; Cl2 _1  0.18; Cl2 _2  0.18; 
   2  Level shift: doubly occupied orbital energies shifted by -1.00D-01
 -----------------------------------------------------------------------------
@  3  -1026.63684102       3.97D-01  -6.81D-02    11   3   8   2
      Virial theorem: -V/T =      2.000624
@    MULPOP   O      -0.48; C       0.25; Cl2 _1  0.12; Cl2 _2  0.12; 
   3  Level shift: doubly occupied orbital energies shifted by -5.00D-02
 -----------------------------------------------------------------------------
@  4  -1026.64650507       8.78D-02  -9.66D-03    11   3   8   2
      Virial theorem: -V/T =      2.000912
@    MULPOP   O      -0.40; C       0.20; Cl2 _1  0.10; Cl2 _2  0.10; 
   4  Level shift: doubly occupied orbital energies shifted by -1.25D-02
 -----------------------------------------------------------------------------
@  5  -1026.64769237       3.80D-02  -1.19D-03    11   3   8   2
      Virial theorem: -V/T =      2.000913
@    MULPOP   O      -0.41; C       0.17; Cl2 _1  0.12; Cl2 _2  0.12; 
 -----------------------------------------------------------------------------
@  6  -1026.64795826       1.37D-02  -2.66D-04    11   3   8   2
      Virial theorem: -V/T =      2.000880
@    MULPOP   O      -0.41; C       0.18; Cl2 _1  0.11; Cl2 _2  0.11; 
 -----------------------------------------------------------------------------
@  7  -1026.64800797       3.78D-03  -4.97D-05    11   3   8   2
      Virial theorem: -V/T =      2.000887
@    MULPOP   O      -0.41; C       0.18; Cl2 _1  0.11; Cl2 _2  0.11; 
 -----------------------------------------------------------------------------
@  8  -1026.64801142       1.71D-03  -3.45D-06    11   3   8   2
      Virial theorem: -V/T =      2.000882
@    MULPOP   O      -0.41; C       0.18; Cl2 _1  0.11; Cl2 _2  0.11; 
 -----------------------------------------------------------------------------
@  9  -1026.64801212       2.46D-04  -7.06D-07    11   3   8   2
      Virial theorem: -V/T =      2.000882
@    MULPOP   O      -0.41; C       0.18; Cl2 _1  0.11; Cl2 _2  0.11; 
 -----------------------------------------------------------------------------
@ 10  -1026.64801214       4.00D-05  -1.29D-08    11   3   8   2
      Virial theorem: -V/T =      2.000882
@    MULPOP   O      -0.41; C       0.18; Cl2 _1  0.11; Cl2 _2  0.11; 
 -----------------------------------------------------------------------------
@ 11  -1026.64801214       6.29D-06  -2.45D-10    11   3   8   2

@ *** DIIS converged in  11 iterations !
@     Converged SCF energy, gradient:  -1026.648012136684    6.29D-06
    - total time used in SIRFCK :              0.00 seconds


 *** SCF orbital energy analysis ***

 Number of electrons        :   48
 Closed shell orbitals      :   11    3    8    2

 Sym       Hartree-Fock orbital energies

1 A1   -104.15856498   -20.57829494   -11.45612495   -10.55373399    -8.01774859
         -8.01284226    -1.54733114    -1.19545046    -0.81730545    -0.70600431
         -0.53141262     0.06256983     0.43259825     0.62372118     0.73830492
          0.79405039     1.08852484     1.58116822     1.80711141     3.37041084

2 B1     -8.01297923    -0.66822276    -0.50505979     0.09639869     0.74127617
          0.90433860     1.81056496

3 B2   -104.15883396   -10.55465327    -8.01783479    -8.01303345    -1.13808287
         -0.72274976    -0.48891755    -0.47800164     0.23411508     0.69866730
          0.77814591     0.94428033     1.09288826     1.91558786

4 A2     -8.01308554    -0.50421322     0.79546838

    E(LUMO) :     0.06256983 au (symmetry 1)
  - E(HOMO) :    -0.47800164 au (symmetry 3)
  ------------------------------------------
    gap     :     0.54057147 au

 --- Writing SIRIFC interface file

--------------------------------------------------------------------------------


     .--------------------------------------------------.
     | HF-SCF KT IPs [a.u. & eV] from Koopmans' theorem |
     `--------------------------------------------------'


     HF-SCF KT symmetry 1 ( A1 ) in point group C2v -- 11 principal poles with pole strength 1

   ============  ============  ============  ============  ============
     104.158565     20.578295     11.456125     10.553734      8.017749
    2834.298730    559.963890    311.737018    287.181710    218.174037
   ============  ============  ============  ============  ============

   ============  ============  ============  ============  ============
       8.012842      1.547331      1.195450      0.817305      0.706004
     218.040529     42.105022     32.529862     22.240013     19.211354
   ============  ============  ============  ============  ============

   ============
       0.531413
      14.460473
   ============

     HF-SCF KT symmetry 2 ( B1 ) in point group C2v -- 3 principal poles with pole strength 1

   ============  ============  ============
       8.012979      0.668223      0.505060
     218.044257     18.183266     13.743376
   ============  ============  ============

     HF-SCF KT symmetry 3 ( B2 ) in point group C2v -- 8 principal poles with pole strength 1

   ============  ============  ============  ============  ============
     104.158834     10.554653      8.017835      8.013033      1.138083
    2834.306050    287.206725    218.176383    218.045732     30.968810
   ============  ============  ============  ============  ============

   ============  ============  ============
       0.722750      0.488918      0.478002
      19.667021     13.304123     13.007086
   ============  ============  ============

     HF-SCF KT symmetry 4 ( A2 ) in point group C2v -- 2 principal poles with pole strength 1

   ============  ============
       8.013086      0.504213
     218.047149     13.720340
   ============  ============

@ Summary of HF-SCF KT ionization potentials [eV]:

@ Symmetry 1 (A1 ) :  2834.299     559.964     311.737     287.182     218.174
@                      218.041      42.105      32.530      22.240      19.211
@                       14.460

@ Symmetry 2 (B1 ) :   218.044      18.183      13.743

@ Symmetry 3 (B2 ) :  2834.306     287.207     218.176     218.046      30.969
@                       19.667      13.304      13.007

@ Symmetry 4 (A2 ) :   218.047      13.720

  === End of HF-SCF KT output ===
--------------------------------------------------------------------------------


 CPU and wall time for SCF :       0.059       0.059


                       .-----------------------------------.
                       | --- Final results from SIRIUS --- |
                       `-----------------------------------'


@    Spin multiplicity:           1
@    Spatial symmetry:            1 ( irrep  A1  in C2v )
@    Total charge of molecule:    0

@    Final HF energy:           -1026.648012136684                 
@    Nuclear repulsion:           185.578616931945
@    Electronic energy:         -1212.226629068629

@    Final gradient norm:           0.000006285662

 
     Date and time (Linux)  : Mon May  4 21:40:07 2026
     Host name              : debian                                  

File label for MO orbitals:   4May26   FOCKDIIS

 (Only coefficients > 0.0100 are printed.)

 Molecular orbitals for symmetry species 1  (A1 )
 ------------------------------------------------

    Orbital         1        2        3        4        5        6        7
   1 O   :1s    -0.0000   0.9837  -0.0000   0.0001  -0.0000   0.0000  -0.2099
   2 O   :1s    -0.0001   0.0996   0.0007   0.0003   0.0001   0.0003   0.2024
   3 O   :1s     0.0007  -0.0545  -0.0029  -0.0041   0.0025   0.0009   0.6535
   4 O   :2pz    0.0000   0.0048  -0.0010  -0.0002   0.0003   0.0001   0.1448
   5 O   :2pz    0.0001  -0.0151  -0.0050  -0.0009  -0.0002  -0.0001   0.1423
   6 C   :1s     0.0000   0.0005   0.9868   0.0001  -0.0006   0.0001  -0.1296
   7 C   :1s     0.0000   0.0014   0.0952  -0.0006  -0.0020   0.0010   0.1460
   8 C   :1s    -0.0021   0.0210  -0.0454   0.0135  -0.0047  -0.0033   0.1218
   9 C   :2pz   -0.0002  -0.0021  -0.0007   0.0006  -0.0005  -0.0002  -0.1794
  10 C   :2pz    0.0006  -0.0197  -0.0127  -0.0022   0.0052   0.0022   0.0848
  11 Cl2 :1s     0.6971  -0.0000   0.0000  -0.2165  -0.0023   0.0000   0.0046
  12 Cl2 :1s     0.0374   0.0000  -0.0002   0.6959   0.0078   0.0000  -0.0264
  13 Cl2 :1s    -0.0122   0.0004  -0.0026   0.0935  -0.0006  -0.0013   0.0350
  14 Cl2 :1s     0.0060   0.0006   0.0124  -0.0362  -0.0006   0.0020  -0.0065
  15 Cl2 :2py   -0.0001  -0.0000   0.0001  -0.0056   0.5659  -0.3922   0.0068
  16 Cl2 :2pz   -0.0001  -0.0000   0.0001  -0.0036   0.3916   0.5666   0.0067
  17 Cl2 :2py    0.0001  -0.0000  -0.0008  -0.0014   0.0475  -0.0311  -0.0116
  18 Cl2 :2pz    0.0002  -0.0001  -0.0004  -0.0020   0.0333   0.0454  -0.0110
  19 Cl2 :2py   -0.0002  -0.0018  -0.0074   0.0019  -0.0129   0.0078   0.0186
  20 Cl2 :2pz   -0.0007   0.0020  -0.0040   0.0042  -0.0113  -0.0134  -0.0053

    Orbital         8        9       10       11       12       13       14
   1 O   :1s     0.0538   0.1101  -0.0631  -0.0070   0.0169  -0.1233   0.0386
   2 O   :1s    -0.0545  -0.1080   0.0534  -0.0036  -0.0230   0.0311  -0.0157
   3 O   :1s    -0.1721  -0.4252   0.2894   0.1001  -0.0792   1.7139  -0.4707
   4 O   :2pz   -0.0041   0.2685  -0.3251   0.0838  -0.0944   0.1499  -0.0669
   5 O   :2pz   -0.0118   0.2338  -0.3077   0.1181  -0.1433   0.6717  -0.2736
   6 C   :1s    -0.0712  -0.1516  -0.0279   0.0081  -0.1590   0.0306  -0.0564
   7 C   :1s     0.0688   0.1775  -0.0201   0.0014   0.1063   0.0440  -0.0000
   8 C   :1s     0.2281   0.4797   0.2832  -0.1170   1.3226  -0.7140   1.0973
   9 C   :2pz    0.1327  -0.0248   0.3395  -0.0644   0.2565   0.0890  -0.0555
  10 C   :2pz    0.0954   0.1501   0.1769   0.0703   0.4561   2.0187  -0.1297
  11 Cl2 :1s     0.0495  -0.0237  -0.0161   0.0003  -0.0151   0.0120   0.0409
  12 Cl2 :1s    -0.2899   0.1420   0.0974  -0.0017   0.0947  -0.0707  -0.2481
  13 Cl2 :1s     0.3803  -0.1714  -0.1213  -0.0014  -0.1085   0.3597   1.1553
  14 Cl2 :1s     0.2415  -0.2611  -0.1857   0.0046  -0.3666  -0.6891  -1.2479
  15 Cl2 :2py    0.0331   0.0628   0.0989   0.0830  -0.1318   0.0106   0.0719
  16 Cl2 :2pz    0.0161   0.0400   0.0247  -0.1773  -0.0806   0.0483  -0.0933
  17 Cl2 :2py   -0.0668  -0.1305  -0.2099  -0.1808   0.2876  -0.0504  -0.2550
  18 Cl2 :2pz   -0.0315  -0.0832  -0.0501   0.3897   0.1754  -0.1238   0.2931
  19 Cl2 :2py   -0.0016  -0.0164  -0.0958  -0.1489   0.5571   0.4952   0.3681
  20 Cl2 :2pz   -0.0042  -0.0201  -0.0119   0.3034   0.3306   0.0234  -0.0615

    Orbital        15       16       17       18       19       20
   1 O   :1s    -0.0034   0.0443  -0.0517  -0.0029  -0.0556  -0.0511
   2 O   :1s     0.0040   0.0113   0.0665  -0.0136   0.1764   1.7686
   3 O   :1s    -0.0022  -0.7022  -0.0897  -0.1349   0.2290  -2.8927
   4 O   :2pz    0.0106  -0.0534   0.3098   0.2795  -0.9715   0.2343
   5 O   :2pz    0.0576  -0.4084   0.4918  -0.2246   1.3083  -1.0249
   6 C   :1s    -0.0102  -0.0406   0.0479   0.0326  -0.0464   0.0133
   7 C   :1s     0.1321  -0.0456  -0.2689  -1.7374  -0.5840   0.1739
   8 C   :1s    -0.5739   1.4325  -0.3030   2.6881   0.0464   1.2474
   9 C   :2pz    0.1296  -0.2413   1.1822  -0.2603   0.1300  -0.2467
  10 C   :2pz   -0.2877  -0.3521  -1.1018   0.8237   0.2789  -1.1278
  11 Cl2 :1s     0.0176   0.0116   0.0047  -0.0002   0.0011  -0.0002
  12 Cl2 :1s    -0.1094  -0.0685  -0.0317   0.0093  -0.0062   0.0015
  13 Cl2 :1s     0.4438   0.4233   0.1039   0.2143   0.0583   0.0241
  14 Cl2 :1s    -0.2896  -0.5913   0.1801  -0.8762  -0.1402   0.0288
  15 Cl2 :2py   -0.2315   0.0337   0.0371  -0.0397  -0.0006  -0.0009
  16 Cl2 :2pz    0.0123   0.2201   0.0381  -0.0163   0.0074  -0.0060
  17 Cl2 :2py    0.7979  -0.1272  -0.1504   0.1430   0.0031   0.0018
  18 Cl2 :2pz   -0.0432  -0.7999  -0.1660   0.0649  -0.0300   0.0055
  19 Cl2 :2py   -0.8689   0.2704  -0.1107   0.4617   0.0741  -0.1016
  20 Cl2 :2pz   -0.0427   1.0081   0.1756   0.2555   0.0668   0.1136

 Molecular orbitals for symmetry species 2  (B1 )
 ------------------------------------------------

    Orbital         1        2        3        4        5        6        7
   1 O   :2px    0.0001   0.3394  -0.2274  -0.3318   0.0097   0.0536  -1.0426
   2 O   :2px   -0.0008   0.3479  -0.2784  -0.5663   0.0248   0.1648   1.1257
   3 C   :2px   -0.0006   0.3147  -0.0755   0.4269  -0.3657   1.0051   0.0498
   4 C   :2px    0.0044   0.2905  -0.0534   0.7095   0.0722  -1.2660  -0.4337
   5 Cl2 :2px    0.6891  -0.0735  -0.1796   0.0623   0.2317   0.0729   0.0026
   6 Cl2 :2px    0.0553   0.1593   0.3934  -0.1458  -0.8100  -0.2845  -0.0193
   7 Cl2 :2px   -0.0165   0.0971   0.3308  -0.1731   0.7729   0.5297   0.1072

 Molecular orbitals for symmetry species 3  (B2 )
 ------------------------------------------------

    Orbital         1        2        3        4        5        6        7
   1 O   :2py    0.0001  -0.0005   0.0010  -0.0005   0.0395   0.3534  -0.2465
   2 O   :2py   -0.0001  -0.0000  -0.0037   0.0019   0.0115   0.3209  -0.2985
   3 C   :2py   -0.0000  -0.0003   0.0001  -0.0002   0.1246   0.2814   0.0192
   4 C   :2py   -0.0018   0.0114   0.0012  -0.0007   0.0846   0.3166   0.0319
   5 Cl2 :1s     0.6971  -0.2164  -0.0024  -0.0001   0.0555  -0.0158  -0.0017
   6 Cl2 :1s     0.0375   0.6953   0.0081   0.0003  -0.3264   0.0953   0.0104
   7 Cl2 :1s    -0.0133   0.0993  -0.0037  -0.0020   0.4192  -0.1131  -0.0112
   8 Cl2 :1s     0.0079  -0.0472   0.0049   0.0034   0.3219  -0.2141  -0.0276
   9 Cl2 :2py   -0.0001  -0.0052   0.5725   0.3821   0.0175   0.0510  -0.0582
  10 Cl2 :2pz   -0.0000  -0.0037   0.3817  -0.5733   0.0167   0.0730   0.1795
  11 Cl2 :2py    0.0006  -0.0043   0.0494   0.0317  -0.0346  -0.1064   0.1307
  12 Cl2 :2pz    0.0001  -0.0013   0.0322  -0.0465  -0.0347  -0.1546  -0.3972
  13 Cl2 :2py   -0.0018   0.0109  -0.0186  -0.0120  -0.0202  -0.0169   0.1100
  14 Cl2 :2pz   -0.0007   0.0047  -0.0099   0.0141  -0.0067  -0.0560  -0.3025

    Orbital         8        9       10       11       12       13       14
   1 O   :2py    0.2683  -0.2160   0.0034   0.1155  -0.0032  -0.2289  -1.0102
   2 O   :2py    0.3466  -0.4618   0.0474  -0.1228  -0.1847  -0.2381   1.3191
   3 C   :2py   -0.1252   0.5256  -0.2693  -0.1293  -0.1574  -1.0292   0.2531
   4 C   :2py   -0.1018   1.2046  -0.0387   0.8214   1.0773   2.0954  -1.1842
   5 Cl2 :1s     0.0023  -0.0161  -0.0379   0.0091   0.0284  -0.0009   0.0028
   6 Cl2 :1s    -0.0140   0.1025   0.2322  -0.0523  -0.1691   0.0126  -0.0218
   7 Cl2 :1s     0.0153  -0.1134  -1.0443   0.3714   1.0308   0.1150  -0.0155
   8 Cl2 :1s     0.0424  -0.5159   1.0260  -0.7161  -1.5618  -0.8511   0.4492
   9 Cl2 :2py   -0.1795  -0.0670   0.1487   0.0211   0.1859  -0.0709   0.0240
  10 Cl2 :2pz   -0.0063  -0.0608   0.0273   0.2349  -0.0529  -0.0283   0.0384
  11 Cl2 :2py    0.3912   0.1357  -0.4997  -0.0809  -0.7119   0.2992  -0.0997
  12 Cl2 :2pz    0.0143   0.1185  -0.0784  -0.8411   0.1790   0.1026  -0.1476
  13 Cl2 :2py    0.3160   0.5285   0.4170   0.3467   1.2564   0.0846  -0.1688
  14 Cl2 :2pz   -0.0255   0.5133   0.0093   1.1104   0.1423   0.4446  -0.1341

 Molecular orbitals for symmetry species 4  (A2 )
 ------------------------------------------------

    Orbital         1        2        3
   1 Cl2 :2px    0.6890  -0.2030   0.2457
   2 Cl2 :2px    0.0558   0.4445  -0.8718
   3 Cl2 :2px   -0.0169   0.3705   0.8899

  Total CPU  time used in SIRIUS :   0.07 seconds
  Total wall time used in SIRIUS :   0.07 seconds

 
     Date and time (Linux)  : Mon May  4 21:40:07 2026
     Host name              : debian                                  


                     .---------------------------------------.
                     | End of Wave Function Section (SIRIUS) |
                     `---------------------------------------'

  Total CPU  time used in DALTON:   0.11 seconds
  Total wall time used in DALTON:   0.11 seconds

 
     Date and time (Linux)  : Mon May  4 21:40:07 2026
     Host name              : debian                                  
