

     ************************************************************************
     *************** Dalton - An Electronic Structure Program ***************
     ************************************************************************

    This is output from DALTON release Dalton2025.0-dev (2025)
         ( Web site: http://daltonprogram.org )

   ----------------------------------------------------------------------------

    NOTE:
     
    Dalton is an experimental code for the evaluation of molecular
    properties using (MC)SCF, DFT, CI, and CC wave functions.
    The authors accept no responsibility for the performance of
    the code or for the correctness of the results.
     
    The code (in whole or part) is provided under a licence and
    is not to be reproduced for further distribution without
    the written permission of the authors or their representatives.
     
    See the home page "http://daltonprogram.org" for further information.
     
    If results obtained with this code are published,
    the appropriate citations would be both of:
     
       K. Aidas, C. Angeli, K. L. Bak, V. Bakken,
       R. Bast, L. Boman, O. Christiansen, R. Cimiraglia,
       S. Coriani, P. Dahle, E. K. Dalskov, U. Ekstroem,
       T. Enevoldsen, J. J. Eriksen, P. Ettenhuber, B. Fernandez,
       L. Ferrighi, H. Fliegl, L. Frediani, K. Hald, A. Halkier,
       C. Haettig, H. Heiberg, T. Helgaker, A. C. Hennum,
       H. Hettema, E. Hjertenaes, S. Hoest, I.-M. Hoeyvik,
       M. F. Iozzi, B. Jansik, H. J. Aa. Jensen, D. Jonsson,
       P. Joergensen, J. Kauczor, S. Kirpekar,
       T. Kjaergaard, W. Klopper, S. Knecht, R. Kobayashi, H. Koch,
       J. Kongsted, A. Krapp, K. Kristensen, A. Ligabue,
       O. B. Lutnaes, J. I. Melo, K. V. Mikkelsen, R. H. Myhre,
       C. Neiss, C. B. Nielsen, P. Norman, J. Olsen,
       J. M. H. Olsen, A. Osted, M. J. Packer, F. Pawlowski,
       T. B. Pedersen, P. F. Provasi, S. Reine, Z. Rinkevicius,
       T. A. Ruden, K. Ruud, V. Rybkin, P. Salek, C. C. M. Samson,
       A. Sanchez de Meras, T. Saue, S. P. A. Sauer,
       B. Schimmelpfennig, K. Sneskov, A. H. Steindal,
       K. O. Sylvester-Hvid, P. R. Taylor, A. M. Teale,
       E. I. Tellgren, D. P. Tew, A. J. Thorvaldsen, L. Thoegersen,
       O. Vahtras, M. A. Watson, D. J. D. Wilson, M. Ziolkowski
       and H. Agren,
       "The Dalton quantum chemistry program system",
       WIREs Comput. Mol. Sci. 2014, 4:269-284 (doi: 10.1002/wcms.1172)
     
    and
     
       Dalton, a molecular electronic structure program,
       Release Dalton2025.0-dev (2025), see http://daltonprogram.org
   ----------------------------------------------------------------------------

    Authors in alphabetical order (Major contribution(s) in parenthesis):

  Kestutis Aidas,              Vilnius University,        Lithuania   (QM/MM)
  Celestino Angeli,            University of Ferrara,     Italy       (NEVPT2)
  Juan J. Aucar,               Northeast National UniversiArgentina   (LRESC, Relativistic Effects on NMR Shieldings and EFG)
  Keld L. Bak,                 UNI-C,                     Denmark     (AOSOPPA, non-adiabatic coupling, magnetic properties)
  Vebjoern Bakken,             University of Oslo,        Norway      (DALTON; geometry optimizer, symmetry detection)
  Radovan Bast,                UiT The Arctic U. of NorwayNorway      (DALTON installation and execution frameworks)
  Pablo Baudin,                University of Valencia,    Spain       (Cholesky excitation energies)
  Linus Boman,                 NTNU,                      Norway      (Cholesky decomposition and subsystems)
  Bruno N. Cabral Tenorio,     Technical Univ. of Denmark,Denmark     (Lanczos-based CC methods)
  Ove Christiansen,            Aarhus University,         Denmark     (CC module)
  Renzo Cimiraglia,            University of Ferrara,     Italy       (NEVPT2)
  Sonia Coriani,               Technical Univ. of Denmark,Denmark     (CC and RESPONS modules)
  Janusz Cukras,               University of Warsaw,      Poland      (MChD in RESPONS)
  Paal Dahle,                  University of Oslo,        Norway      (Parallelization)
  Erik K. Dalskov,             UNI-C,                     Denmark     (SOPPA)
  Thomas Enevoldsen,           Univ. of Southern Denmark, Denmark     (SOPPA)
  Janus J. Eriksen,            Aarhus University,         Denmark     (Polarizable embedding, TDA)
  Rasmus Faber,                Technical Univ. of Denmark,Denmark     (Vib.avg. NMR w. SOPPA, parallel AO-SOPPA, CVS-CC and EOMCC)
  Tobias Fahleson,             KTH Stockholm,             Sweden      (Damped cubic response)
  Berta Fernandez,             U. of Santiago de CompostelSpain       (Doublet spin, ESR in RESPONS)
  Lara Ferrighi,               Aarhus University,         Denmark     (PCM Cubic response)
  Heike Fliegl,                University of Oslo,        Norway      (CCSD(R12))
  Luca Frediani,               UiT The Arctic U. of NorwayNorway      (PCM)
  Emmanuel Fromager,           Univ. Strasbourg,          France      (MC-srDFT)
  Bin Gao,                     UiT The Arctic U. of NorwayNorway      (Gen1Int library)
  Andre S. P. Gomes,           CNRS/Universite de Lille,  France      (Frozen density embedding)
  Christof Haettig,            Ruhr-University Bochum,    Germany     (CC module)
  Kasper Hald,                 Aarhus University,         Denmark     (CC module)
  Asger Halkier,               Aarhus University,         Denmark     (CC module)
  Frederik Beyer Hansen,       University of Copenhagen,  Denmark     (Parallel AO-SOPPA)
  Erik D. Hedegaard,           Univ. of Southern Denmark, Denmark     (Polarizable embedding, QM/MM, and MC-srDFT)
  Hanne Heiberg,               University of Oslo,        Norway      (Geometry analysis, selected one-electron integrals)
  Trygve Helgaker,             University of Oslo,        Norway      (DALTON; ABACUS, ERI, DFT modules, London, and much more)
  Alf Christian Hennum,        University of Oslo,        Norway      (Parity violation)
  Hinne Hettema,               University of Auckland,    New Zealand (Quadratic response in RESPONS; SIRIUS supersymmetry)
  Andreas E. Hillers-Bendtsen, University of Copenhagen,  Denmark     (MP3)
  Eirik Hjertenaes,            NTNU,                      Norway      (Cholesky decomposition)
  Nicolai Machholdt Hoeyer,    Aarhus University,         Denmark     (MP3)
  Pi A. B. Haase,              University of Copenhagen,  Denmark     (Triplet AO-SOPPA)
  Maria Francesca Iozzi,       University of Oslo,        Norway      (RPA)
  Christoph Jacob,             TU Braunschweig            Germany     (Frozen density embedding)
  Brano Jansik,                Technical Univ. of Ostrava Czech Rep.  (DFT cubic response)
  Hans Joergen Aa. Jensen,     Univ. of Southern Denmark, Denmark     (DALTON; SIRIUS, RESPONS, ABACUS, MC-srDFT, and much more)
  Dan Jonsson,                 UiT The Arctic U. of NorwayNorway      (Cubic response in RESPONS module)
  Poul Joergensen,             Aarhus University,         Denmark     (RESPONS, ABACUS, and CC modules)
  Maciej Kaminski,             University of Warsaw,      Poland      (CPPh in RESPONS)
  Joanna Kauczor,              Linkoeping University,     Sweden      (Complex polarization propagator (CPP) module)
  Sheela Kirpekar,             Univ. of Southern Denmark, Denmark     (Mass-velocity & Darwin integrals)
  Frederik Oersted Kjeldal,    Technical Univ. of Denmark,Denmark     (MP3)
  Erik Kjellgren,              Univ. of Southern Denmark, Denmark     (MC-srDFT)
  Wim Klopper,                 KIT Karlsruhe,             Germany     (R12 code in CC, SIRIUS, and ABACUS modules)
  Stefan Knecht,               ETH Zurich,                Switzerland (Parallel CI and MCSCF, MC-srDFT)
  Rika Kobayashi,              Australian National Univ., Australia   (DIIS in CC, London in MCSCF)
  Henrik Koch,                 NTNU,                      Norway      (CC module, Cholesky decomposition)
  Jacob Kongsted,              Univ. of Southern Denmark, Denmark     (Polarizable embedding, polarizable density embedding, QM/MM)
  Andrea Ligabue,              University of Modena,      Italy       (CTOCD, AOSOPPA)
  Nanna H. List,               Univ. of Southern Denmark, Denmark     (Polarizable embedding)
  Ola B. Lutnaes,              University of Oslo,        Norway      (DFT Hessian)
  Juan I. Melo,                University of Buenos Aires,Argentina   (LRESC, Relativistic Effects on NMR Shieldings)
  Kurt V. Mikkelsen,           University of Copenhagen,  Denmark     (MC-SCRF, QM/MM, and MP3)
  Rolf H. Myhre,               NTNU,                      Norway      (Subsystems and CC3)
  Christian Neiss,             Univ. Erlangen-Nuernberg,  Germany     (CCSD(R12))
  Christian B. Nielsen,        University of Copenhagen,  Denmark     (QM/MM)
  Patrick Norman,              KTH Stockholm,             Sweden      (Cubic response and complex frequency response in RESPONS)
  Jeppe Olsen,                 Aarhus University,         Denmark     (SIRIUS CI/density modules)
  Jogvan Magnus H. Olsen,      Aarhus University,         Denmark     (Polarizable embedding and polarizable density embedding)
  Anders Osted,                Copenhagen University,     Denmark     (QM/MM)
  Martin J. Packer,            University of Sheffield,   UK          (SOPPA)
  Filip Pawlowski,             Kazimierz Wielki UniversityPoland      (CC3)
  Morten N. Pedersen,          Univ. of Southern Denmark, Denmark     (Polarizable embedding)
  Thomas B. Pedersen,          University of Oslo,        Norway      (Cholesky decomposition)
  Patricio F. Provasi,         University of Northeastern,Argentina   (Analysis of coupling constants in localized orbitals)
  Peter Reinholdt,             Univ. of Southern Denmark, Denmark     (Polarizable embedding and polarizable density embedding)
  Zilvinas Rinkevicius,        KTH Stockholm,             Sweden      (open-shell DFT, ESR)
  Elias Rudberg,               KTH Stockholm,             Sweden      (DFT grid and basis info)
  Torgeir A. Ruden,            University of Oslo,        Norway      (Numerical derivatives in ABACUS)
  Kenneth Ruud,                UiT The Arctic U. of NorwayNorway      (DALTON; ABACUS magnetic properties and much more)
  Pawel Salek,                 KTH Stockholm,             Sweden      (DALTON; DFT code)
  Claire C. M. Samson,         University of Karlsruhe    Germany     (Boys localization, r12 integrals in ERI)
  Alfredo Sanchez de Meras,    University of Valencia,    Spain       (CC module, Cholesky decomposition)
  Trond Saue,                  Paul Sabatier University,  France      (direct Fock matrix construction)
  Stephan P. A. Sauer,         University of Copenhagen,  Denmark     (SOPPA(CCSD), SOPPA prop., AOSOPPA, vibrational g-factors)
  Bernd Schimmelpfennig,       Forschungszentrum KarlsruheGermany     (AMFI module)
  Anna K. Schnack-Petersen,    University of Copenhagen,  Denmark     (RPA(D) and HRPA(D) properties in AOSOPPA)
  Kristian Sneskov,            Aarhus University,         Denmark     (Polarizable embedding, QM/MM)
  Arnfinn H. Steindal,         UiT The Arctic U. of NorwayNorway      (parallel QM/MM, polarizable embedding)
  Casper Steinmann,            Aalborg University,        Denmark     (QFIT, polarizable embedding)
  K. O. Sylvester-Hvid,        University of Copenhagen,  Denmark     (MC-SCRF)
  Peter R. Taylor,             VLSCI/Univ. of Melbourne,  Australia   (Symmetry handling ABACUS, integral transformation)
  Andrew M. Teale,             University of Nottingham,  England     (DFT-AC, DFT-D)
  David P. Tew,                University of Bristol,     England     (CCSD(R12))
  Julien Toulouse,             Sorbonne Univ.,            France      (MC-srDFT)
  Olav Vahtras,                KTH Stockholm,             Sweden      (Triplet response, spin-orbit, ESR, TDDFT, open-shell DFT)
  Lucas Visscher,              Vrije Universiteit AmsterdaNetherlands (Frozen density embedding)
  David J. Wilson,             La Trobe University,       Australia   (DFT Hessian and DFT magnetizabilities)
  Luna Zamok,                  University of Copenhagen,  Denmark     (Block Lanczos RPA solver in SOPPA module)
  Hans Agren,                  KTH Stockholm,             Sweden      (SIRIUS module, RESPONS, MC-SCRF solvation)
 --------------------------------------------------------------------------------

     Date and time (Linux)  : Mon May  4 22:07:39 2026
     Host name              : debian                                  

 * Work memory size             :    64000000 =  488.28 megabytes.

 * Directories for basis set searches:
   1) /home/vdwv/DIPLOM_ITMO/CALCULATIONS_AND_SOFTS/softwares/Dalton_Shenanigans/dalton/dalton/build
   2) /home/vdwv/DIPLOM_ITMO/CALCULATIONS_AND_SOFTS/softwares/Dalton_Shenanigans/dalton/dalton/build/basis


Compilation information
-----------------------

 Who compiled             | vdwv
 Host                     | debian
 System                   | Linux-6.12.73+deb13-amd64
 CMake generator          | Unix Makefiles
 Processor                | x86_64
 64-bit integers          | OFF
 MPI                      | OFF
 Fortran compiler         | /usr/bin/gfortran
 Fortran compiler version | GNU Fortran (Debian 14.2.0-19) 14.2.0
 C compiler               | /usr/bin/gcc
 C compiler version       | gcc (Debian 14.2.0-19) 14.2.0
 C++ compiler             | /usr/bin/g++
 C++ compiler version     | g++ (Debian 14.2.0-19) 14.2.0
 BLAS                     | /opt/intel/oneapi/mkl/2025.3/lib/intel64/libmkl_gf
                          | _lp64.so;/opt/intel/oneapi/mkl/2025.3/lib/intel64/
                          | libmkl_sequential.so;/opt/intel/oneapi/mkl/2025.3/
                          | lib/intel64/libmkl_core.so;/usr/lib/x86_64-linux-g
                          | nu/libpthread.a;/usr/lib/x86_64-linux-gnu/libm.so
 LAPACK                   | /opt/intel/oneapi/mkl/2025.3/lib/intel64/libmkl_la
                          | pack95_lp64.a;/opt/intel/oneapi/mkl/2025.3/lib/int
                          | el64/libmkl_gf_lp64.so
 Static linking           | OFF
 Last Git revision        | 1892235f9264b9be21ec2fefe6e0081d659ab244
 Git branch               | master
 Configuration time       | 2026-05-04 17:50:26.788788

 * Sequential calculation.


   Content of the .dal input file
 ----------------------------------

BASIS
cc-pVTZ
Benzene C6H6 using the cc-pVTZ basis
Using automatic symmetry detection
AtomTypes=2 Angstrom
Charge=6.0 Atoms=6
C1    0.000      1.383      0.000
C2    1.197      0.691      0.000
C3    1.197     -0.691      0.000
C4    0.000     -1.383      0.000
C5   -1.197     -0.691      0.000
C6   -1.197      0.691      0.000
Charge=1.0 Atoms=6
H7    0.000      2.456      0.000
H8    2.127      1.228      0.000
H9    2.127     -1.228      0.000
H10   0.000     -2.456      0.000
H11  -2.127     -1.228      0.000
H12  -2.127      1.228      0.000

**DALTON INPUT
.RUN WAVE FUN
**WAVE FUN
.HF
**END OF


       *******************************************************************
       *********** Output from DALTON general input processing ***********
       *******************************************************************

 --------------------------------------------------------------------------------
   Overall default print level:    0
   Print level for DALTON.STAT:    1

    HERMIT 1- and 2-electron integral sections will be executed
    "Old" integral transformation used (limited to max 255 basis functions)
    Wave function sections will be executed (SIRIUS module)
 --------------------------------------------------------------------------------


   ****************************************************************************
   *************** Output of molecule and basis set information ***************
   ****************************************************************************


    The two title cards from your ".mol" input:
    --------------------------------------------------------------------------------
 1: Benzene C6H6 using the cc-pVTZ basis
 2: Using automatic symmetry detection
    --------------------------------------------------------------------------------

  Coordinates are entered in Angstrom and converted to atomic units.
          - Conversion factor : 1 bohr = 0.52917721080 A

  Atomic type no.    1
  --------------------
  Nuclear charge:   6.00000
  Number of symmetry independent centers:    6
  Number of basis sets to read;    2
  Basis set file used for this atomic type with Z =   6 :
     "/home/vdwv/DIPLOM_ITMO/CALCULATIONS_AND_SOFTS/softwares/Dalton_Shenanigans/dalton/dalton/build/basis/cc-pVTZ"

  Atomic type no.    2
  --------------------
  Nuclear charge:   1.00000
  Number of symmetry independent centers:    6
  Number of basis sets to read;    2
  Basis set file used for this atomic type with Z =   1 :
     "/home/vdwv/DIPLOM_ITMO/CALCULATIONS_AND_SOFTS/softwares/Dalton_Shenanigans/dalton/dalton/build/basis/cc-pVTZ"


                      SYMADD: Addition of symmetry requested
                      --------------------------------------

 Symmetry test threshold:  5.00E-06

@  The molecule has been centered at center of mass and rotated
@  so the principal axes of inertia are along coordinate axes.

 Symmetry class found: D(2h)          

 Symmetry Independent Centres             
 ----------------------------
C3     6 :      0.00000000     2.26200217     1.30580075  Isotope  1
C4     6 :      0.00000000     0.00000000     2.61349123  Isotope  1
H10    1 :      0.00000000     0.00000000     4.64116736  Isotope  1
H9     1 :      0.00000000     4.01944747     2.32058368  Isotope  1

 The following symmetry elements were found:   X  Y  Z  


                         SYMGRP: Point group information
                         -------------------------------

@    Full point group is: D(2h)          
@    Represented as:      D2h

@  * The irrep name for each symmetry:    1: Ag     2: B3u    3: B2u    4: B1g    5: B1u    6: B2g    7: B3g    8: Au 


   * The point group was generated by:

      Reflection in the yz-plane
      Reflection in the xz-plane
      Reflection in the xy-plane

   * Group multiplication table

        |  E   C2z  C2y  C2x   i   Oxy  Oxz  Oyz
   -----+----------------------------------------
     E  |  E   C2z  C2y  C2x   i   Oxy  Oxz  Oyz
    C2z | C2z   E   C2x  C2y  Oxy   i   Oyz  Oxz
    C2y | C2y  C2x   E   C2z  Oxz  Oyz   i   Oxy
    C2x | C2x  C2y  C2z   E   Oyz  Oxz  Oxy   i 
     i  |  i   Oxy  Oxz  Oyz   E   C2z  C2y  C2x
    Oxy | Oxy   i   Oyz  Oxz  C2z   E   C2x  C2y
    Oxz | Oxz  Oyz   i   Oxy  C2y  C2x   E   C2z
    Oyz | Oyz  Oxz  Oxy   i   C2x  C2y  C2z   E 

   * Character table

        |  E   C2z  C2y  C2x   i   Oxy  Oxz  Oyz
   -----+----------------------------------------
    Ag  |   1    1    1    1    1    1    1    1
    B3u |   1   -1   -1    1   -1    1    1   -1
    B2u |   1   -1    1   -1   -1    1   -1    1
    B1g |   1    1   -1   -1    1    1   -1   -1
    B1u |   1    1   -1   -1   -1   -1    1    1
    B2g |   1   -1    1   -1    1   -1    1   -1
    B3g |   1   -1   -1    1    1   -1   -1    1
    Au  |   1    1    1    1   -1   -1   -1   -1

   * Direct product table

        | Ag   B3u  B2u  B1g  B1u  B2g  B3g  Au 
   -----+----------------------------------------
    Ag  | Ag   B3u  B2u  B1g  B1u  B2g  B3g  Au 
    B3u | B3u  Ag   B1g  B2u  B2g  B1u  Au   B3g
    B2u | B2u  B1g  Ag   B3u  B3g  Au   B1u  B2g
    B1g | B1g  B2u  B3u  Ag   Au   B3g  B2g  B1u
    B1u | B1u  B2g  B3g  Au   Ag   B3u  B2u  B1g
    B2g | B2g  B1u  Au   B3g  B3u  Ag   B1g  B2u
    B3g | B3g  Au   B1u  B2g  B2u  B1g  Ag   B3u
    Au  | Au   B3g  B2g  B1u  B1g  B2u  B3u  Ag 


                                 Isotopic Masses
                                 ---------------

                           C3  _1     12.000000
                           C3  _2     12.000000
                           C3  _3     12.000000
                           C3  _4     12.000000
                           C4  _1     12.000000
                           C4  _2     12.000000
                           H9  _1      1.007825
                           H9  _2      1.007825
                           H9  _3      1.007825
                           H9  _4      1.007825
                           H10 _1      1.007825
                           H10 _2      1.007825

                       Total mass:    78.046950 amu
                       Natural abundance:  93.495 %

 Center-of-mass coordinates (a.u.):    0.000000    0.000000    0.000000
 Center-of-mass coordinates (Angs):    0.000000    0.000000    0.000000


  Atoms and basis sets
  --------------------

  Number of atom types :    2
  Total number of atoms:   12

  Basis set used is "cc-pVTZ" from the basis set library.

  label    atoms   charge   prim   cont     basis
  ----------------------------------------------------------------------
  C4          6    6.0000    42    30      [10s5p2d1f|4s3p2d1f]                               
  H1          6    1.0000    16    14      [5s2p1d|3s2p1d]                                    
  ----------------------------------------------------------------------
  total:     12   42.0000   348   264
  ----------------------------------------------------------------------
  Spherical harmonic basis used.

  Threshold for neglecting AO integrals:  1.00D-12


  Cartesian Coordinates (bohr)
  ----------------------------

  Total number of coordinates:   36
  C3  / 1 :     1  x   0.0000000000    2  y   2.2620021716    3  z   1.3058007524
  C3  / 2 :     4  x   0.0000000000    5  y  -2.2620021716    6  z   1.3058007524
  C3  / 3 :     7  x   0.0000000000    8  y   2.2620021716    9  z  -1.3058007524
  C3  / 4 :    10  x   0.0000000000   11  y  -2.2620021716   12  z  -1.3058007524
  C4  / 1 :    13  x   0.0000000000   14  y   0.0000000000   15  z   2.6134912309
  C4  / 2 :    16  x   0.0000000000   17  y   0.0000000000   18  z  -2.6134912309
  H9  / 1 :    19  x   0.0000000000   20  y   4.0194474679   21  z   2.3205836815
  H9  / 2 :    22  x   0.0000000000   23  y  -4.0194474679   24  z   2.3205836815
  H9  / 3 :    25  x   0.0000000000   26  y   4.0194474679   27  z  -2.3205836815
  H9  / 4 :    28  x   0.0000000000   29  y  -4.0194474679   30  z  -2.3205836815
  H10 / 1 :    31  x   0.0000000000   32  y   0.0000000000   33  z   4.6411673630
  H10 / 2 :    34  x   0.0000000000   35  y   0.0000000000   36  z  -4.6411673630


  Cartesian Coordinates (xyz format; angstrom)
  --------------------------------------------

   12

  C        0.0000000000            1.1970000000            0.6910000000
  C        0.0000000000           -1.1970000000            0.6910000000
  C        0.0000000000            1.1970000000           -0.6910000000
  C        0.0000000000           -1.1970000000           -0.6910000000
  C        0.0000000000            0.0000000000            1.3830000000
  C        0.0000000000            0.0000000000           -1.3830000000
  H        0.0000000000            2.1270000000            1.2280000000
  H        0.0000000000           -2.1270000000            1.2280000000
  H        0.0000000000            2.1270000000           -1.2280000000
  H        0.0000000000           -2.1270000000           -1.2280000000
  H        0.0000000000            0.0000000000            2.4560000000
  H        0.0000000000            0.0000000000           -2.4560000000


  Symmetry Coordinates
  --------------------

  Number of coordinates in each symmetry:     6    4    6    2    6    4    6    2

  Symmetry  Ag  ( 1)

    1   C3    y    [  2  -    5  +    8  -   11 ]/4
    2   C3    z    [  3  +    6  -    9  -   12 ]/4
    3   C4    z    [ 15  -   18 ]/2
    4   H9    y    [ 20  -   23  +   26  -   29 ]/4
    5   H9    z    [ 21  +   24  -   27  -   30 ]/4
    6   H10   z    [ 33  -   36 ]/2

  Symmetry  B3u ( 2)

    7   C3    x    [  1  +    4  +    7  +   10 ]/4
    8   C4    x    [ 13  +   16 ]/2
    9   H9    x    [ 19  +   22  +   25  +   28 ]/4
   10   H10   x    [ 31  +   34 ]/2

  Symmetry  B2u ( 3)

   11   C3    y    [  2  +    5  +    8  +   11 ]/4
   12   C3    z    [  3  -    6  -    9  +   12 ]/4
   13   C4    y    [ 14  +   17 ]/2
   14   H9    y    [ 20  +   23  +   26  +   29 ]/4
   15   H9    z    [ 21  -   24  -   27  +   30 ]/4
   16   H10   y    [ 32  +   35 ]/2

  Symmetry  B1g ( 4)

   17   C3    x    [  1  -    4  +    7  -   10 ]/4
   18   H9    x    [ 19  -   22  +   25  -   28 ]/4

  Symmetry  B1u ( 5)

   19   C3    y    [  2  -    5  -    8  +   11 ]/4
   20   C3    z    [  3  +    6  +    9  +   12 ]/4
   21   C4    z    [ 15  +   18 ]/2
   22   H9    y    [ 20  -   23  -   26  +   29 ]/4
   23   H9    z    [ 21  +   24  +   27  +   30 ]/4
   24   H10   z    [ 33  +   36 ]/2

  Symmetry  B2g ( 6)

   25   C3    x    [  1  +    4  -    7  -   10 ]/4
   26   C4    x    [ 13  -   16 ]/2
   27   H9    x    [ 19  +   22  -   25  -   28 ]/4
   28   H10   x    [ 31  -   34 ]/2

  Symmetry  B3g ( 7)

   29   C3    y    [  2  +    5  -    8  -   11 ]/4
   30   C3    z    [  3  -    6  +    9  -   12 ]/4
   31   C4    y    [ 14  -   17 ]/2
   32   H9    y    [ 20  +   23  -   26  -   29 ]/4
   33   H9    z    [ 21  -   24  +   27  -   30 ]/4
   34   H10   y    [ 32  -   35 ]/2

  Symmetry  Au  ( 8)

   35   C3    x    [  1  -    4  -    7  +   10 ]/4
   36   H9    x    [ 19  -   22  -   25  +   28 ]/4


   Interatomic separations (in Angstrom):
   --------------------------------------

            C3  _1      C3  _2      C3  _3      C3  _4      C4  _1      C4  _2
            ------      ------      ------      ------      ------      ------
 C3  _1:    0.000000
 C3  _2:    2.394000    0.000000
 C3  _3:    1.382000    2.764265    0.000000
 C3  _4:    2.764265    1.382000    2.394000    0.000000
 C4  _1:    1.382633    1.382633    2.394637    2.394637    0.000000
 C4  _2:    2.394637    2.394637    1.382633    1.382633    2.766000    0.000000
 H9  _1:    1.073904    3.367097    2.132478    3.838168    2.132640    3.367707
 H9  _2:    3.367097    1.073904    3.838168    2.132478    2.132640    3.367707
 H9  _3:    2.132478    3.838168    1.073904    3.367097    3.367707    2.132640
 H9  _4:    3.838168    2.132478    3.367097    1.073904    3.367707    2.132640
 H10 _1:    2.132612    2.132612    3.366960    3.366960    1.073000    3.839000
 H10 _2:    3.366960    3.366960    2.132612    2.132612    3.839000    1.073000

            H9  _1      H9  _2      H9  _3      H9  _4      H10 _1      H10 _2
            ------      ------      ------      ------      ------      ------
 H9  _1:    0.000000
 H9  _2:    4.254000    0.000000
 H9  _3:    2.456000    4.912072    0.000000
 H9  _4:    4.912072    2.456000    4.254000    0.000000
 H10 _1:    2.456036    2.456036    4.253938    4.253938    0.000000
 H10 _2:    4.253938    4.253938    2.456036    2.456036    4.912000    0.000000


  Max    interatomic separation is    4.9121 Angstrom (    9.2825 Bohr)
  between atoms    9 and    8, "H9  _3" and "H9  _2".

  Min HX interatomic separation is    1.0730 Angstrom (    2.0277 Bohr)

  Min YX interatomic separation is    1.3820 Angstrom (    2.6116 Bohr)


  Bond distances (Angstrom):
  --------------------------

                  atom 1     atom 2       distance
                  ------     ------       --------
  bond distance:  C3  _3     C3  _1       1.382000
  bond distance:  C3  _4     C3  _2       1.382000
  bond distance:  C4  _1     C3  _1       1.382633
  bond distance:  C4  _1     C3  _2       1.382633
  bond distance:  C4  _2     C3  _3       1.382633
  bond distance:  C4  _2     C3  _4       1.382633
  bond distance:  H9  _1     C3  _1       1.073904
  bond distance:  H9  _2     C3  _2       1.073904
  bond distance:  H9  _3     C3  _3       1.073904
  bond distance:  H9  _4     C3  _4       1.073904
  bond distance:  H10 _1     C4  _1       1.073000
  bond distance:  H10 _2     C4  _2       1.073000


  Bond angles (degrees):
  ----------------------

                  atom 1     atom 2     atom 3         angle
                  ------     ------     ------         -----
  bond angle:     C3  _3     C3  _1     C4  _1       120.033
  bond angle:     C3  _3     C3  _1     H9  _1       120.003
  bond angle:     C4  _1     C3  _1     H9  _1       119.964
  bond angle:     C3  _4     C3  _2     C4  _1       120.033
  bond angle:     C3  _4     C3  _2     H9  _2       120.003
  bond angle:     C4  _1     C3  _2     H9  _2       119.964
  bond angle:     C3  _1     C3  _3     C4  _2       120.033
  bond angle:     C3  _1     C3  _3     H9  _3       120.003
  bond angle:     C4  _2     C3  _3     H9  _3       119.964
  bond angle:     C3  _2     C3  _4     C4  _2       120.033
  bond angle:     C3  _2     C3  _4     H9  _4       120.003
  bond angle:     C4  _2     C3  _4     H9  _4       119.964
  bond angle:     C3  _1     C4  _1     C3  _2       119.935
  bond angle:     C3  _1     C4  _1     H10 _1       120.033
  bond angle:     C3  _2     C4  _1     H10 _1       120.033
  bond angle:     C3  _3     C4  _2     C3  _4       119.935
  bond angle:     C3  _3     C4  _2     H10 _2       120.033
  bond angle:     C3  _4     C4  _2     H10 _2       120.033




 Principal moments of inertia (u*A**2) and principal axes
 --------------------------------------------------------

   IA      87.012953          0.000000    0.000000    1.000000
   IB      87.061032          0.000000    1.000000    0.000000
   IC     174.073985          1.000000    0.000000    0.000000


 Rotational constants
 --------------------

@    The molecule is planar.

               A                   B                   C

           5808.0893           5804.8819           2903.2426 MHz
            0.193737            0.193630            0.096842 cm-1


@  Nuclear repulsion energy :  205.341039347228 Hartree


  Symmetry Orbitals
  -----------------

  Number of orbitals in each symmetry:          50   24   40   18   50   24   40   18


  Symmetry  Ag ( 1)

    1     C3       1s         1 +    2 +    3 +    4
    2     C3       1s         5 +    6 +    7 +    8
    3     C3       1s         9 +   10 +   11 +   12
    4     C3       1s        13 +   14 +   15 +   16
    5     C3       2py       21 -   22 +   23 -   24
    6     C3       2pz       25 +   26 -   27 -   28
    7     C3       2py       33 -   34 +   35 -   36
    8     C3       2pz       37 +   38 -   39 -   40
    9     C3       2py       45 -   46 +   47 -   48
   10     C3       2pz       49 +   50 -   51 -   52
   11     C3       3d1-      57 -   58 -   59 +   60
   12     C3       3d0       61 +   62 +   63 +   64
   13     C3       3d2+      69 +   70 +   71 +   72
   14     C3       3d1-      77 -   78 -   79 +   80
   15     C3       3d0       81 +   82 +   83 +   84
   16     C3       3d2+      89 +   90 +   91 +   92
   17     C3       4f3-      93 -   94 +   95 -   96
   18     C3       4f1-     101 -  102 +  103 -  104
   19     C3       4f0      105 +  106 -  107 -  108
   20     C3       4f2+     113 +  114 -  115 -  116
   21     C4       1s       121 +  122
   22     C4       1s       123 +  124
   23     C4       1s       125 +  126
   24     C4       1s       127 +  128
   25     C4       2pz      133 -  134
   26     C4       2pz      139 -  140
   27     C4       2pz      145 -  146
   28     C4       3d0      151 +  152
   29     C4       3d2+     155 +  156
   30     C4       3d0      161 +  162
   31     C4       3d2+     165 +  166
   32     C4       4f0      173 -  174
   33     C4       4f2+     177 -  178
   34     H9       1s       181 +  182 +  183 +  184
   35     H9       1s       185 +  186 +  187 +  188
   36     H9       1s       189 +  190 +  191 +  192
   37     H9       2py      197 -  198 +  199 -  200
   38     H9       2pz      201 +  202 -  203 -  204
   39     H9       2py      209 -  210 +  211 -  212
   40     H9       2pz      213 +  214 -  215 -  216
   41     H9       3d1-     221 -  222 -  223 +  224
   42     H9       3d0      225 +  226 +  227 +  228
   43     H9       3d2+     233 +  234 +  235 +  236
   44     H10      1s       237 +  238
   45     H10      1s       239 +  240
   46     H10      1s       241 +  242
   47     H10      2pz      247 -  248
   48     H10      2pz      253 -  254
   49     H10      3d0      259 +  260
   50     H10      3d2+     263 +  264


  Symmetry  B3u( 2)

   51     C3       2px       17 +   18 +   19 +   20
   52     C3       2px       29 +   30 +   31 +   32
   53     C3       2px       41 +   42 +   43 +   44
   54     C3       3d2-      53 -   54 +   55 -   56
   55     C3       3d1+      65 +   66 -   67 -   68
   56     C3       3d2-      73 -   74 +   75 -   76
   57     C3       3d1+      85 +   86 -   87 -   88
   58     C3       4f2-      97 -   98 -   99 +  100
   59     C3       4f1+     109 +  110 +  111 +  112
   60     C3       4f3+     117 +  118 +  119 +  120
   61     C4       2px      129 +  130
   62     C4       2px      135 +  136
   63     C4       2px      141 +  142
   64     C4       3d1+     153 -  154
   65     C4       3d1+     163 -  164
   66     C4       4f1+     175 +  176
   67     C4       4f3+     179 +  180
   68     H9       2px      193 +  194 +  195 +  196
   69     H9       2px      205 +  206 +  207 +  208
   70     H9       3d2-     217 -  218 +  219 -  220
   71     H9       3d1+     229 +  230 -  231 -  232
   72     H10      2px      243 +  244
   73     H10      2px      249 +  250
   74     H10      3d1+     261 -  262


  Symmetry  B2u( 3)

   75     C3       1s         1 -    2 +    3 -    4
   76     C3       1s         5 -    6 +    7 -    8
   77     C3       1s         9 -   10 +   11 -   12
   78     C3       1s        13 -   14 +   15 -   16
   79     C3       2py       21 +   22 +   23 +   24
   80     C3       2pz       25 -   26 -   27 +   28
   81     C3       2py       33 +   34 +   35 +   36
   82     C3       2pz       37 -   38 -   39 +   40
   83     C3       2py       45 +   46 +   47 +   48
   84     C3       2pz       49 -   50 -   51 +   52
   85     C3       3d1-      57 +   58 -   59 -   60
   86     C3       3d0       61 -   62 +   63 -   64
   87     C3       3d2+      69 -   70 +   71 -   72
   88     C3       3d1-      77 +   78 -   79 -   80
   89     C3       3d0       81 -   82 +   83 -   84
   90     C3       3d2+      89 -   90 +   91 -   92
   91     C3       4f3-      93 +   94 +   95 +   96
   92     C3       4f1-     101 +  102 +  103 +  104
   93     C3       4f0      105 -  106 -  107 +  108
   94     C3       4f2+     113 -  114 -  115 +  116
   95     C4       2py      131 +  132
   96     C4       2py      137 +  138
   97     C4       2py      143 +  144
   98     C4       3d1-     149 -  150
   99     C4       3d1-     159 -  160
  100     C4       4f3-     167 +  168
  101     C4       4f1-     171 +  172
  102     H9       1s       181 -  182 +  183 -  184
  103     H9       1s       185 -  186 +  187 -  188
  104     H9       1s       189 -  190 +  191 -  192
  105     H9       2py      197 +  198 +  199 +  200
  106     H9       2pz      201 -  202 -  203 +  204
  107     H9       2py      209 +  210 +  211 +  212
  108     H9       2pz      213 -  214 -  215 +  216
  109     H9       3d1-     221 +  222 -  223 -  224
  110     H9       3d0      225 -  226 +  227 -  228
  111     H9       3d2+     233 -  234 +  235 -  236
  112     H10      2py      245 +  246
  113     H10      2py      251 +  252
  114     H10      3d1-     257 -  258


  Symmetry  B1g( 4)

  115     C3       2px       17 -   18 +   19 -   20
  116     C3       2px       29 -   30 +   31 -   32
  117     C3       2px       41 -   42 +   43 -   44
  118     C3       3d2-      53 +   54 +   55 +   56
  119     C3       3d1+      65 -   66 -   67 +   68
  120     C3       3d2-      73 +   74 +   75 +   76
  121     C3       3d1+      85 -   86 -   87 +   88
  122     C3       4f2-      97 +   98 -   99 -  100
  123     C3       4f1+     109 -  110 +  111 -  112
  124     C3       4f3+     117 -  118 +  119 -  120
  125     C4       3d2-     147 +  148
  126     C4       3d2-     157 +  158
  127     C4       4f2-     169 -  170
  128     H9       2px      193 -  194 +  195 -  196
  129     H9       2px      205 -  206 +  207 -  208
  130     H9       3d2-     217 +  218 +  219 +  220
  131     H9       3d1+     229 -  230 -  231 +  232
  132     H10      3d2-     255 +  256


  Symmetry  B1u( 5)

  133     C3       1s         1 +    2 -    3 -    4
  134     C3       1s         5 +    6 -    7 -    8
  135     C3       1s         9 +   10 -   11 -   12
  136     C3       1s        13 +   14 -   15 -   16
  137     C3       2py       21 -   22 -   23 +   24
  138     C3       2pz       25 +   26 +   27 +   28
  139     C3       2py       33 -   34 -   35 +   36
  140     C3       2pz       37 +   38 +   39 +   40
  141     C3       2py       45 -   46 -   47 +   48
  142     C3       2pz       49 +   50 +   51 +   52
  143     C3       3d1-      57 -   58 +   59 -   60
  144     C3       3d0       61 +   62 -   63 -   64
  145     C3       3d2+      69 +   70 -   71 -   72
  146     C3       3d1-      77 -   78 +   79 -   80
  147     C3       3d0       81 +   82 -   83 -   84
  148     C3       3d2+      89 +   90 -   91 -   92
  149     C3       4f3-      93 -   94 -   95 +   96
  150     C3       4f1-     101 -  102 -  103 +  104
  151     C3       4f0      105 +  106 +  107 +  108
  152     C3       4f2+     113 +  114 +  115 +  116
  153     C4       1s       121 -  122
  154     C4       1s       123 -  124
  155     C4       1s       125 -  126
  156     C4       1s       127 -  128
  157     C4       2pz      133 +  134
  158     C4       2pz      139 +  140
  159     C4       2pz      145 +  146
  160     C4       3d0      151 -  152
  161     C4       3d2+     155 -  156
  162     C4       3d0      161 -  162
  163     C4       3d2+     165 -  166
  164     C4       4f0      173 +  174
  165     C4       4f2+     177 +  178
  166     H9       1s       181 +  182 -  183 -  184
  167     H9       1s       185 +  186 -  187 -  188
  168     H9       1s       189 +  190 -  191 -  192
  169     H9       2py      197 -  198 -  199 +  200
  170     H9       2pz      201 +  202 +  203 +  204
  171     H9       2py      209 -  210 -  211 +  212
  172     H9       2pz      213 +  214 +  215 +  216
  173     H9       3d1-     221 -  222 +  223 -  224
  174     H9       3d0      225 +  226 -  227 -  228
  175     H9       3d2+     233 +  234 -  235 -  236
  176     H10      1s       237 -  238
  177     H10      1s       239 -  240
  178     H10      1s       241 -  242
  179     H10      2pz      247 +  248
  180     H10      2pz      253 +  254
  181     H10      3d0      259 -  260
  182     H10      3d2+     263 -  264


  Symmetry  B2g( 6)

  183     C3       2px       17 +   18 -   19 -   20
  184     C3       2px       29 +   30 -   31 -   32
  185     C3       2px       41 +   42 -   43 -   44
  186     C3       3d2-      53 -   54 -   55 +   56
  187     C3       3d1+      65 +   66 +   67 +   68
  188     C3       3d2-      73 -   74 -   75 +   76
  189     C3       3d1+      85 +   86 +   87 +   88
  190     C3       4f2-      97 -   98 +   99 -  100
  191     C3       4f1+     109 +  110 -  111 -  112
  192     C3       4f3+     117 +  118 -  119 -  120
  193     C4       2px      129 -  130
  194     C4       2px      135 -  136
  195     C4       2px      141 -  142
  196     C4       3d1+     153 +  154
  197     C4       3d1+     163 +  164
  198     C4       4f1+     175 -  176
  199     C4       4f3+     179 -  180
  200     H9       2px      193 +  194 -  195 -  196
  201     H9       2px      205 +  206 -  207 -  208
  202     H9       3d2-     217 -  218 -  219 +  220
  203     H9       3d1+     229 +  230 +  231 +  232
  204     H10      2px      243 -  244
  205     H10      2px      249 -  250
  206     H10      3d1+     261 +  262


  Symmetry  B3g( 7)

  207     C3       1s         1 -    2 -    3 +    4
  208     C3       1s         5 -    6 -    7 +    8
  209     C3       1s         9 -   10 -   11 +   12
  210     C3       1s        13 -   14 -   15 +   16
  211     C3       2py       21 +   22 -   23 -   24
  212     C3       2pz       25 -   26 +   27 -   28
  213     C3       2py       33 +   34 -   35 -   36
  214     C3       2pz       37 -   38 +   39 -   40
  215     C3       2py       45 +   46 -   47 -   48
  216     C3       2pz       49 -   50 +   51 -   52
  217     C3       3d1-      57 +   58 +   59 +   60
  218     C3       3d0       61 -   62 -   63 +   64
  219     C3       3d2+      69 -   70 -   71 +   72
  220     C3       3d1-      77 +   78 +   79 +   80
  221     C3       3d0       81 -   82 -   83 +   84
  222     C3       3d2+      89 -   90 -   91 +   92
  223     C3       4f3-      93 +   94 -   95 -   96
  224     C3       4f1-     101 +  102 -  103 -  104
  225     C3       4f0      105 -  106 +  107 -  108
  226     C3       4f2+     113 -  114 +  115 -  116
  227     C4       2py      131 -  132
  228     C4       2py      137 -  138
  229     C4       2py      143 -  144
  230     C4       3d1-     149 +  150
  231     C4       3d1-     159 +  160
  232     C4       4f3-     167 -  168
  233     C4       4f1-     171 -  172
  234     H9       1s       181 -  182 -  183 +  184
  235     H9       1s       185 -  186 -  187 +  188
  236     H9       1s       189 -  190 -  191 +  192
  237     H9       2py      197 +  198 -  199 -  200
  238     H9       2pz      201 -  202 +  203 -  204
  239     H9       2py      209 +  210 -  211 -  212
  240     H9       2pz      213 -  214 +  215 -  216
  241     H9       3d1-     221 +  222 +  223 +  224
  242     H9       3d0      225 -  226 -  227 +  228
  243     H9       3d2+     233 -  234 -  235 +  236
  244     H10      2py      245 -  246
  245     H10      2py      251 -  252
  246     H10      3d1-     257 +  258


  Symmetry  Au ( 8)

  247     C3       2px       17 -   18 -   19 +   20
  248     C3       2px       29 -   30 -   31 +   32
  249     C3       2px       41 -   42 -   43 +   44
  250     C3       3d2-      53 +   54 -   55 -   56
  251     C3       3d1+      65 -   66 +   67 -   68
  252     C3       3d2-      73 +   74 -   75 -   76
  253     C3       3d1+      85 -   86 +   87 -   88
  254     C3       4f2-      97 +   98 +   99 +  100
  255     C3       4f1+     109 -  110 -  111 +  112
  256     C3       4f3+     117 -  118 -  119 +  120
  257     C4       3d2-     147 -  148
  258     C4       3d2-     157 -  158
  259     C4       4f2-     169 +  170
  260     H9       2px      193 -  194 -  195 +  196
  261     H9       2px      205 -  206 -  207 +  208
  262     H9       3d2-     217 +  218 -  219 -  220
  263     H9       3d1+     229 -  230 +  231 -  232
  264     H10      3d2-     255 -  256

  Symmetries of electric field:  B3u(2)  B2u(3)  B1u(5)

  Symmetries of magnetic field:  B3g(7)  B2g(6)  B1g(4)


                     .---------------------------------------.
                     | Starting in Integral Section (HERMIT) |
                     `---------------------------------------'



 ***************************************************************************************
 ****************** Output from **INTEGRALS input processing (HERMIT) ******************
 ***************************************************************************************


 - Using defaults, no **INTEGRALS input found

 Default print level:        1

 Calculation of one- and two-electron Hamiltonian integrals.

 Center of mass  (bohr):      0.000000000000      0.000000000000      0.000000000000
 Operator center (bohr):      0.000000000000      0.000000000000      0.000000000000
 Gauge origin    (bohr):      0.000000000000      0.000000000000      0.000000000000
 Dipole origin   (bohr):      0.000000000000      0.000000000000      0.000000000000

Calculation of 2-electron integrals are postponed until they are needed.


     ************************************************************************
     ************************** Output from HERINT **************************
     ************************************************************************



                      Nuclear contribution to dipole moments
                      --------------------------------------

                    All dipole components are zero by symmetry


  Total CPU  time used in HERMIT:   0.17 seconds
  Total wall time used in HERMIT:   0.17 seconds


                        .----------------------------------.
                        | End of Integral Section (HERMIT) |
                        `----------------------------------'



                   .--------------------------------------------.
                   | Starting in Wave Function Section (SIRIUS) |
                   `--------------------------------------------'


 *** Output from Huckel module :

     Using EWMO model:          F
     Using EHT  model:          T
     Number of Huckel orbitals each symmetry:    9    2    6    1    9    2    6    1

 Huckel EHT eigenvalues for symmetry :  1
          -11.419020     -11.378880      -1.584244      -0.876777      -0.789990
           -0.412629      -0.213442      -0.208172      -0.175941

 Huckel EHT eigenvalues for symmetry :  2
           -0.710856      -0.287435

 Huckel EHT eigenvalues for symmetry :  3
          -11.398096      -1.223795      -0.529870      -0.490461      -0.201513
           -0.164841

 Huckel EHT eigenvalues for symmetry :  4
           -0.459592

 Huckel EHT eigenvalues for symmetry :  5
          -11.398138     -11.363562      -1.223903      -0.623602      -0.529952
           -0.233416      -0.201392      -0.164738      -0.159184

 Huckel EHT eigenvalues for symmetry :  6
           -0.459553      -0.236635

 Huckel EHT eigenvalues for symmetry :  7
          -11.378853      -0.876635      -0.412468      -0.213501      -0.175953
           -0.162831

 Huckel EHT eigenvalues for symmetry :  8
           -0.287330

 **********************************************************************
 *SIRIUS* a direct, restricted step, second order MCSCF program       *
 **********************************************************************

 
     Date and time (Linux)  : Mon May  4 22:07:39 2026
     Host name              : debian                                  

 Title lines from ".mol" input file:
     Benzene C6H6 using the cc-pVTZ basis
     Using automatic symmetry detection

 Print level on unit LUPRI =   2 is   0
 Print level on unit LUW4  =   2 is   5

@    Restricted, closed shell Hartree-Fock calculation.

 Initial molecular orbitals are obtained according to
 ".MOSTART EHT   " input option

     Wave function specification
     ============================
@    Wave function type        --- HF ---
@    Number of closed shell electrons          42
@    Number of electrons in active shells       0
@    Total charge of the molecule               0

@    Spin multiplicity and 2 M_S                1         0
@    Total number of symmetries                 8 (point group: D2h)
@    Reference state symmetry                   1 (irrep name : Ag )

     Orbital specifications
     ======================
@    Abelian symmetry species          All |    1    2    3    4    5    6    7    8
@                                          |  Ag   B3u  B2u  B1g  B1u  B2g  B3g  Au 
                                       --- |  ---  ---  ---  ---  ---  ---  ---  ---
@    Total number of orbitals          264 |   50   24   40   18   50   24   40   18
@    Number of basis functions         264 |   50   24   40   18   50   24   40   18

      ** Automatic occupation of RHF orbitals **

      -- Initial occupation of symmetries is determined from extended Huckel guess.           
      -- Initial occupation of symmetries is :
@    Occupied SCF orbitals              21 |    6    1    4    1    5    1    3    0

     Maximum number of Fock   iterations      0
     Maximum number of DIIS   iterations     60
     Maximum number of QC-SCF iterations     60
     Threshold for SCF convergence     1.00D-05


 ***********************************************
 ***** DIIS acceleration of SCF iterations *****
 ***********************************************

 C1-DIIS algorithm; max error vectors =    8

 Automatic occupation of symmetries with  42 electrons.

 Iter     Total energy    Error norm  Delta(E)    SCF occupation
 -----------------------------------------------------------------------------

Calculating AOSUPINT

---> (Re)generating AOTWOINT


     ************************************************************************
     ************************** Output from HERINT **************************
     ************************************************************************


***  INFO  GETGAB: GABSO--- not found on AOGABINT. Regenerating.

 Threshold for neglecting two-electron integrals:  1.00D-12
 HERMIT - Number of two-electron integrals written:    77772791 ( 12.7% )
 HERMIT - Gigabytes written:                              1.159

  Total CPU  time used in TWOINT:  26.88 seconds
  Total wall time used in TWOINT:  26.90 seconds
  Time used in TWOINT     is      27.33 seconds
  CPU  time used in MAKE_AOTWOINT is  27.33 seconds
  WALL time used in MAKE_AOTWOINT is  27.36 seconds
     (Precalculated AO two-electron integrals are transformed to P-supermatrix elements.
      Threshold for discarding integrals :  1.00D-12 )

  CPU  time used in FORMSUP    is   1.88 seconds
  WALL time used in FORMSUP    is   1.88 seconds
@  1  -229.875638491       4.28D+00  -2.30D+02     6   1   4   1   5   1   3   0
      Virial theorem: -V/T =      2.008997
@    MULPOP   C3  _1  0.16; C3  _2  0.16; C3  _3  0.16; C3  _4  0.16; C4  _1  0.16; C4  _2  0.16; H9  _1 -0.16; H9  _2 -0.16; H9  _3 -0.16; H9  _4 -0.16; 
@             H10 _1 -0.16; H10 _2 -0.16; 
   1  Level shift: doubly occupied orbital energies shifted by -2.00D-01
 -----------------------------------------------------------------------------
@  2  -230.714633039       9.89D-01  -8.39D-01     6   1   4   1   5   1   3   0
      Virial theorem: -V/T =      1.994828
@    MULPOP   C3  _1 -0.16; C3  _2 -0.16; C3  _3 -0.16; C3  _4 -0.16; C4  _1 -0.16; C4  _2 -0.16; H9  _1  0.16; H9  _2  0.16; H9  _3  0.16; H9  _4  0.16; 
@             H10 _1  0.16; H10 _2  0.16; 
   2  Level shift: doubly occupied orbital energies shifted by -5.00D-02
 -----------------------------------------------------------------------------
@  3  -230.772906450       3.26D-01  -5.83D-02     6   1   4   1   5   1   3   0
      Virial theorem: -V/T =      2.002257
@    MULPOP   C3  _1 -0.12; C3  _2 -0.12; C3  _3 -0.12; C3  _4 -0.12; C4  _1 -0.12; C4  _2 -0.12; H9  _1  0.12; H9  _2  0.12; H9  _3  0.12; H9  _4  0.12; 
@             H10 _1  0.12; H10 _2  0.12; 
   3  Level shift: doubly occupied orbital energies shifted by -2.50D-02
 -----------------------------------------------------------------------------
@  4  -230.780145480       5.03D-02  -7.24D-03     6   1   4   1   5   1   3   0
      Virial theorem: -V/T =      2.000463
@    MULPOP   C3  _1 -0.14; C3  _2 -0.14; C3  _3 -0.14; C3  _4 -0.14; C4  _1 -0.14; C4  _2 -0.14; H9  _1  0.14; H9  _2  0.14; H9  _3  0.14; H9  _4  0.14; 
@             H10 _1  0.14; H10 _2  0.14; 
 -----------------------------------------------------------------------------
@  5  -230.780494800       9.36D-03  -3.49D-04     6   1   4   1   5   1   3   0
      Virial theorem: -V/T =      2.000262
@    MULPOP   C3  _1 -0.15; C3  _2 -0.15; C3  _3 -0.15; C3  _4 -0.15; C4  _1 -0.15; C4  _2 -0.15; H9  _1  0.15; H9  _2  0.15; H9  _3  0.15; H9  _4  0.15; 
@             H10 _1  0.15; H10 _2  0.15; 
 -----------------------------------------------------------------------------
@  6  -230.780507899       1.80D-03  -1.31D-05     6   1   4   1   5   1   3   0
      Virial theorem: -V/T =      2.000265
@    MULPOP   C3  _1 -0.15; C3  _2 -0.15; C3  _3 -0.15; C3  _4 -0.15; C4  _1 -0.15; C4  _2 -0.15; H9  _1  0.15; H9  _2  0.15; H9  _3  0.15; H9  _4  0.15; 
@             H10 _1  0.15; H10 _2  0.15; 
 -----------------------------------------------------------------------------
@  7  -230.780508455       2.31D-04  -5.56D-07     6   1   4   1   5   1   3   0
      Virial theorem: -V/T =      2.000261
@    MULPOP   C3  _1 -0.15; C3  _2 -0.15; C3  _3 -0.15; C3  _4 -0.15; C4  _1 -0.15; C4  _2 -0.15; H9  _1  0.15; H9  _2  0.15; H9  _3  0.15; H9  _4  0.15; 
@             H10 _1  0.15; H10 _2  0.15; 
 -----------------------------------------------------------------------------
@  8  -230.780508463       3.52D-05  -8.19D-09     6   1   4   1   5   1   3   0
      Virial theorem: -V/T =      2.000261
@    MULPOP   C3  _1 -0.15; C3  _2 -0.15; C3  _3 -0.15; C3  _4 -0.15; C4  _1 -0.15; C4  _2 -0.15; H9  _1  0.15; H9  _2  0.15; H9  _3  0.15; H9  _4  0.15; 
@             H10 _1  0.15; H10 _2  0.15; 
 -----------------------------------------------------------------------------
@  9  -230.780508463       1.18D-05  -1.63D-10     6   1   4   1   5   1   3   0
      Virial theorem: -V/T =      2.000261
@    MULPOP   C3  _1 -0.15; C3  _2 -0.15; C3  _3 -0.15; C3  _4 -0.15; C4  _1 -0.15; C4  _2 -0.15; H9  _1  0.15; H9  _2  0.15; H9  _3  0.15; H9  _4  0.15; 
@             H10 _1  0.15; H10 _2  0.15; 
 -----------------------------------------------------------------------------
@ 10  -230.780508463       3.90D-06  -9.72D-12     6   1   4   1   5   1   3   0

@ *** DIIS converged in  10 iterations !
@     Converged SCF energy, gradient:   -230.780508463423    3.90D-06
    - total time used in SIRFCK :              0.00 seconds


 *** SCF orbital energy analysis ***

 Only the 20 lowest virtual orbital energies printed in each symmetry.

 Number of electrons        :   42
 Closed shell orbitals      :    6    1    4    1    5    1    3    0

 Sym       Hartree-Fock orbital energies

1 Ag    -11.22904480   -11.22712694    -1.15506064    -0.82532522    -0.71312913
         -0.49408004     0.14654821     0.20244691     0.36234461     0.41657431
          0.51177543     0.59474686     0.64370486     0.64380816     0.73167145
          1.01777378     1.03623658     1.23163295     1.31733055     1.51936559
          1.60602136     1.74527594     1.75442335     2.19407063     2.33464002
          2.66244080

2 B3u    -0.50530553     0.13145841     0.42971664     0.57401539     0.62531216
          0.96452823     1.12612145     1.22458973     1.60129700     2.33566539
          2.54637379     2.80764441     2.95559746     2.98825301     3.23462842
          3.38851345     3.43736523     3.62037662     4.12107544     4.18748833
          4.45092591

3 B2u   -11.22843494    -1.01683876    -0.62131331    -0.58862512     0.17013785
          0.39401403     0.42344161     0.52023126     0.59680910     0.75356824
          0.91298499     1.08305843     1.31843195     1.38238503     1.48967236
          1.52364293     1.60597217     2.30525020     2.46977188     2.49366647
          2.77562059     2.94342925     3.03072265     3.33560135

4 B1g    -0.33707779     0.47338025     0.84809689     0.86418776     1.30193696
          1.51879366     2.44614408     2.61050009     3.01704692     3.06664760
          3.22581535     3.45732576     3.71870172     3.92995996     4.13117832
          4.21923398     4.68613362     5.15530410

5 B1u   -11.22843740   -11.22648095    -1.01682871    -0.64251683    -0.58886839
          0.17012603     0.22311987     0.42359240     0.52031556     0.55927005
          0.59701889     0.70652158     0.75387415     0.91308743     1.01460714
          1.13587613     1.31844382     1.38248537     1.52335390     1.60640195
          1.63537661     1.89751047     2.23585123     2.30563225     2.49268604

6 B2g    -0.33694351     0.33603047     0.47341097     0.67114849     0.86407248
          1.21981890     1.30194987     1.51877735     1.77267507     2.44648136
          2.86125026     3.01703936     3.06651102     3.22554242     3.61774575
          3.71891441     3.94387641     4.13079145     4.21937067     4.53469936
          4.68734552

7 B3g   -11.22711937    -0.82499784    -0.49345108     0.20245920     0.36238014
          0.59486896     0.64369794     0.64725399     0.73179448     0.96538737
          1.03616397     1.23186423     1.50267228     1.51927090     1.60648273
          1.74521035     2.09905630     2.19387505     2.74717237     2.92574145
          3.17645710     3.30916076     3.42922625

8 Au      0.13171825     0.57413629     0.96460427     1.22430197     1.60155850
          1.81933703     2.54645573     2.95544820     3.38891964     3.43782001
          3.62044370     3.67240310     4.07946987     4.18766974     4.45038501
          4.70948585     5.21699237     5.41367404

    E(LUMO) :     0.13145841 au (symmetry 2)
  - E(HOMO) :    -0.33694351 au (symmetry 6)
  ------------------------------------------
    gap     :     0.46840192 au

 --- Writing SIRIFC interface file

--------------------------------------------------------------------------------


     .--------------------------------------------------.
     | HF-SCF KT IPs [a.u. & eV] from Koopmans' theorem |
     `--------------------------------------------------'


     HF-SCF KT symmetry 1 ( Ag ) in point group D2h -- 6 principal poles with pole strength 1

   ============  ============  ============  ============  ============
      11.229045     11.227127      1.155061      0.825325      0.713129
     305.557852    305.505665     31.430799     22.458242     19.405231
   ============  ============  ============  ============  ============

   ============
       0.494080
      13.444602
   ============

     HF-SCF KT symmetry 2 ( B3u) in point group D2h -- 1 principal poles with pole strength 1

   ============
       0.505306
      13.750063
   ============

     HF-SCF KT symmetry 3 ( B2u) in point group D2h -- 4 principal poles with pole strength 1

   ============  ============  ============  ============
      11.228435      1.016839      0.621313      0.588625
     305.541257     27.669590     16.906795     16.017304
   ============  ============  ============  ============

     HF-SCF KT symmetry 4 ( B1g) in point group D2h -- 1 principal poles with pole strength 1

   ============
       0.337078
       9.172353
   ============

     HF-SCF KT symmetry 5 ( B1u) in point group D2h -- 5 principal poles with pole strength 1

   ============  ============  ============  ============  ============
      11.228437     11.226481      1.016829      0.642517      0.588868
     305.541324    305.488087     27.669317     17.483772     16.023924
   ============  ============  ============  ============  ============

     HF-SCF KT symmetry 6 ( B2g) in point group D2h -- 1 principal poles with pole strength 1

   ============
       0.336944
       9.168699
   ============

     HF-SCF KT symmetry 7 ( B3g) in point group D2h -- 3 principal poles with pole strength 1

   ============  ============  ============
      11.227119      0.824998      0.493451
     305.505459     22.449333     13.427487
   ============  ============  ============

@ Summary of HF-SCF KT ionization potentials [eV]:

@ Symmetry 1 (Ag ) :   305.558     305.506      31.431      22.458      19.405
@                       13.445

@ Symmetry 2 (B3u) :    13.750

@ Symmetry 3 (B2u) :   305.541      27.670      16.907      16.017

@ Symmetry 4 (B1g) :     9.172

@ Symmetry 5 (B1u) :   305.541     305.488      27.669      17.484      16.024

@ Symmetry 6 (B2g) :     9.169

@ Symmetry 7 (B3g) :   305.505      22.449      13.427

@ Symmetry 8 (Au ) :  No IPs in this symmetry

  === End of HF-SCF KT output ===
--------------------------------------------------------------------------------


 CPU and wall time for SCF :      30.023      30.054


                       .-----------------------------------.
                       | --- Final results from SIRIUS --- |
                       `-----------------------------------'


@    Spin multiplicity:           1
@    Spatial symmetry:            1 ( irrep  Ag  in D2h )
@    Total charge of molecule:    0

@    Final HF energy:            -230.780508463423                 
@    Nuclear repulsion:           205.341039347228
@    Electronic energy:          -436.121547810651

@    Final gradient norm:           0.000003895401

 
     Date and time (Linux)  : Mon May  4 22:08:09 2026
     Host name              : debian                                  

File label for MO orbitals:   4May26   FOCKDIIS

 (Only coefficients > 0.0100 are printed.)

 Molecular orbitals for symmetry species 1  (Ag )
 ------------------------------------------------

    Orbital         1        2        3        4        5        6        7
   1 C3  :1s     0.4073  -0.2893  -0.0117  -0.0029  -0.0008  -0.0004  -0.0001
   2 C3  :1s     0.0010  -0.0009   0.3577   0.2077   0.0329  -0.0115  -0.1142
   4 C3  :1s     0.0000  -0.0005  -0.0857  -0.0018   0.0124   0.0023  -0.7839
   5 C3  :2py   -0.0002  -0.0006  -0.0831   0.1789   0.2572  -0.0241  -0.1054
   6 C3  :2pz   -0.0001   0.0004  -0.0481  -0.2161   0.1477   0.3865  -0.0607
   7 C3  :2py    0.0003   0.0014   0.0155  -0.0181  -0.0132   0.0074  -0.0561
   8 C3  :2pz    0.0001  -0.0005   0.0090   0.0246  -0.0075  -0.0295  -0.0328
   9 C3  :2py    0.0003   0.0009   0.0284  -0.0514  -0.0554   0.0175  -0.2831
  10 C3  :2pz    0.0002  -0.0003   0.0164   0.0609  -0.0318  -0.0532  -0.1636
  12 C3  :3d0    0.0001  -0.0001   0.0044   0.0072  -0.0004  -0.0125  -0.0027
  14 C3  :3d1-   0.0002   0.0010   0.0017   0.0048  -0.0004   0.0054  -0.0272
  15 C3  :3d0   -0.0000   0.0001   0.0026   0.0092   0.0004  -0.0157   0.0002
  16 C3  :3d2+  -0.0001  -0.0001  -0.0064  -0.0031  -0.0002  -0.0087   0.0310
  21 C4  :1s     0.4088   0.5765  -0.0117   0.0057  -0.0008   0.0008  -0.0002
  22 C4  :1s     0.0010   0.0017   0.3575  -0.4158   0.0323   0.0229  -0.1146
  23 C4  :1s     0.0009   0.0010  -0.0089   0.0120   0.0007  -0.0018  -0.0011
  24 C4  :1s     0.0000   0.0010  -0.0854   0.0035   0.0125  -0.0045  -0.7825
  25 C4  :2pz   -0.0002   0.0006  -0.0959  -0.0951   0.2967  -0.3443  -0.1213
  26 C4  :2pz    0.0003  -0.0020   0.0179   0.0070  -0.0152   0.0167  -0.0656
  27 C4  :2pz    0.0003  -0.0012   0.0327   0.0284  -0.0638   0.0228  -0.3309
  28 C4  :3d0    0.0001   0.0003   0.0028  -0.0038   0.0008  -0.0147   0.0038
  30 C4  :3d0    0.0002  -0.0015   0.0052  -0.0089  -0.0001  -0.0234  -0.0412
  31 C4  :3d2+   0.0000  -0.0006  -0.0049   0.0116  -0.0006  -0.0142   0.0071
  34 H9  :1s     0.0002  -0.0001   0.0884   0.1428   0.2833   0.2068   0.0438
  35 H9  :1s    -0.0006  -0.0011  -0.0359  -0.0331  -0.0506  -0.0315   0.1008
  36 H9  :1s    -0.0006  -0.0000  -0.0355  -0.0473  -0.0840  -0.0429   0.9666
  39 H9  :2py    0.0002   0.0004   0.0040   0.0014  -0.0029  -0.0041  -0.0892
  40 H9  :2pz    0.0001   0.0000   0.0023  -0.0049  -0.0017   0.0038  -0.0514
  44 H10 :1s     0.0002   0.0002   0.0884  -0.2872   0.2832  -0.4134   0.0435
  45 H10 :1s    -0.0005   0.0022  -0.0361   0.0665  -0.0507   0.0632   0.1024
  46 H10 :1s    -0.0006   0.0000  -0.0356   0.0951  -0.0840   0.0858   0.9699
  48 H10 :2pz    0.0002  -0.0008   0.0047   0.0024  -0.0033   0.0032  -0.1034

    Orbital         8        9       10       11       12       13       14
   1 C3  :1s    -0.0079  -0.0021  -0.0354   0.0368  -0.0137   0.0113  -0.0313
   2 C3  :1s    -0.1123  -0.1017  -0.1698   0.3439   0.0732   0.1273   0.0279
   3 C3  :1s     0.0046   0.0250   0.0103  -0.0083  -0.0359   0.0261   0.0235
   4 C3  :1s    -0.6881  -3.1834   0.4771  -1.0456   2.1174  -1.1986  -2.7716
   5 C3  :2py   -0.0315   0.0236   0.0642   0.0229  -0.2090   0.0001   0.2082
   6 C3  :2pz   -0.0806   0.0783   0.0366   0.0127   0.2048   0.0965   0.1743
   7 C3  :2py   -0.0469   0.2280   0.2248  -0.3014   0.3239  -0.1772  -0.2957
   8 C3  :2pz   -0.0136  -0.1199   0.1315  -0.1750   0.1759  -0.0478  -0.1408
   9 C3  :2py   -0.6016   2.3666  -0.0150  -0.1481  -0.1048  -0.3430  -1.4570
  10 C3  :2pz   -0.7265  -0.5736  -0.0054  -0.0827  -0.0357  -1.3303  -1.4872
  11 C3  :3d1-  -0.0066  -0.0089   0.0068  -0.0407  -0.0044  -0.0061   0.0051
  12 C3  :3d0    0.0021  -0.0158  -0.0032   0.0167  -0.0141   0.0129  -0.0030
  13 C3  :3d2+   0.0008  -0.0121  -0.0024   0.0182   0.0050   0.0028   0.0099
  14 C3  :3d1-  -0.0255   0.1274   0.0024  -0.1549   0.4083  -0.1047  -0.3661
  15 C3  :3d0   -0.0305   0.0034  -0.0362   0.0573  -0.0551  -0.0504   0.0566
  16 C3  :3d2+   0.0190   0.1141   0.0606   0.0781  -0.1864   0.1382   0.2831
  17 C3  :4f3-   0.0022  -0.0131  -0.0090   0.0125  -0.0068  -0.0015   0.0204
  18 C3  :4f1-   0.0015   0.0015   0.0022  -0.0031   0.0170  -0.0027  -0.0070
  19 C3  :4f0   -0.0019   0.0069  -0.0146   0.0139  -0.0127   0.0024   0.0092
  20 C3  :4f2+   0.0049   0.0129  -0.0181   0.0201  -0.0182   0.0161   0.0312
  21 C4  :1s     0.0159   0.0040  -0.0352   0.0366   0.0267   0.0267  -0.0229
  22 C4  :1s     0.2249   0.2026  -0.1697   0.3436  -0.1483  -0.1955  -0.1565
  23 C4  :1s    -0.0092  -0.0500   0.0103  -0.0084   0.0719  -0.0629  -0.0279
  24 C4  :1s     1.3784   6.3621   0.4784  -1.0665  -4.2510   5.0924   0.8358
  25 C4  :2pz    0.1349  -0.1189   0.0738   0.0250   0.1598  -0.4058   0.0072
  26 C4  :2pz    0.0946  -0.2744   0.2657  -0.3513  -0.7420   0.6469   0.1458
  27 C4  :2pz    1.7692  -3.5329  -0.0092  -0.1597   0.2088   3.8069   0.7147
  28 C4  :3d0    0.0115  -0.0063   0.0069  -0.0442   0.0095   0.0130   0.0098
  29 C4  :3d2+   0.0075   0.0024   0.0036  -0.0170  -0.0208  -0.0016   0.0148
  30 C4  :3d0    0.0551  -0.0417  -0.0260  -0.1789  -0.8722   0.8059   0.0882
  31 C4  :3d2+  -0.0412  -0.2482   0.0651  -0.0567  -0.1917  -0.0697  -0.1007
  32 C4  :4f0    0.0073   0.0110   0.0245  -0.0275  -0.0492   0.0646   0.0061
  33 C4  :4f2+  -0.0046   0.0295   0.0052  -0.0024  -0.0059  -0.0037   0.0059
  34 H9  :1s    -0.0425   0.0030  -0.1584  -0.2628  -0.0768  -0.1279  -0.0675
  35 H9  :1s     0.1702  -0.0851  -0.5105   0.3876  -1.0734   0.5041   1.4262
  36 H9  :1s     1.1890  -0.9695   0.1348   0.7581  -0.0378   0.6388   1.7251
  37 H9  :2py    0.0090   0.0046   0.0139   0.0007   0.0194  -0.0022  -0.0091
  38 H9  :2pz    0.0014  -0.0112   0.0081   0.0004   0.0016  -0.0013  -0.0053
  39 H9  :2py   -0.0841   0.0243   0.0923  -0.3233   0.2231  -0.2175  -0.4867
  40 H9  :2pz   -0.0346   0.0290   0.0529  -0.1864   0.2045  -0.0850  -0.2578
  41 H9  :3d1-   0.0031  -0.0039  -0.0172   0.0234  -0.0163   0.0075   0.0220
  43 H9  :3d2+  -0.0038   0.0016   0.0152  -0.0219   0.0141  -0.0096  -0.0224
  44 H10 :1s     0.0856  -0.0078  -0.1587  -0.2620   0.1537   0.2483   0.1474
  45 H10 :1s    -0.3407   0.1687  -0.5214   0.3953   2.1582  -2.4794  -0.2822
  46 H10 :1s    -2.3805   1.9463   0.1277   0.7532   0.0862  -3.0397  -0.3738
  47 H10 :2pz   -0.0170   0.0033   0.0162   0.0007  -0.0354   0.0169   0.0007
  48 H10 :2pz    0.1800  -0.0709   0.1107  -0.3757  -0.5952   1.0024   0.1554
  49 H10 :3d0   -0.0098   0.0082  -0.0234   0.0322   0.0437  -0.0563  -0.0079

    Orbital        15       16
   1 C3  :1s     0.0138  -0.0384
   2 C3  :1s     0.1934  -0.1847
   3 C3  :1s     0.0741  -0.0412
   4 C3  :1s    -6.0131   0.2773
   5 C3  :2py   -0.2888   0.2204
   6 C3  :2pz    0.0427   0.1275
   7 C3  :2py    0.1864   0.0648
   8 C3  :2pz   -0.3836   0.0384
   9 C3  :2py    2.9263  -0.0299
  10 C3  :2pz   -0.6579  -0.0143
  11 C3  :3d1-   0.0293   0.0078
  12 C3  :3d0    0.0218  -0.0052
  13 C3  :3d2+   0.0126  -0.0001
  14 C3  :3d1-   0.0820   0.1883
  15 C3  :3d0    0.1238   0.0246
  16 C3  :3d2+   0.4840  -0.2619
  17 C3  :4f3-  -0.0220  -0.0082
  18 C3  :4f1-  -0.0200   0.0021
  19 C3  :4f0    0.0251   0.0037
  20 C3  :4f2+   0.0403  -0.0033
  21 C4  :1s    -0.0271  -0.0383
  22 C4  :1s    -0.3840  -0.1840
  23 C4  :1s    -0.1483  -0.0411
  24 C4  :1s    12.0163   0.2565
  25 C4  :2pz    0.4582   0.2545
  26 C4  :2pz    0.0609   0.0784
  27 C4  :2pz   -4.4212  -0.0210
  28 C4  :3d0   -0.0223   0.0066
  29 C4  :3d2+  -0.0128   0.0067
  30 C4  :3d0    0.5383   0.3093
  31 C4  :3d2+  -0.5158  -0.0967
  32 C4  :4f0    0.0629   0.0054
  33 C4  :4f2+   0.0639  -0.0084
  34 H9  :1s     0.0465   0.0074
  35 H9  :1s     0.7050  -0.5922
  36 H9  :1s    -0.7408   0.1777
  37 H9  :2py   -0.0100   0.0212
  38 H9  :2pz   -0.0075   0.0123
  39 H9  :2py   -0.1908  -0.1820
  40 H9  :2pz   -0.0172  -0.1056
  43 H9  :3d2+  -0.0113  -0.0029
  44 H10 :1s    -0.0944   0.0074
  45 H10 :1s    -1.4112  -0.5960
  46 H10 :1s     1.4902   0.1735
  47 H10 :2pz    0.0248   0.0245
  48 H10 :2pz    0.3461  -0.2095
  49 H10 :3d0   -0.0213   0.0025

 Molecular orbitals for symmetry species 2  (B3u)
 ------------------------------------------------

    Orbital         1        2        3        4        5        6        7
   1 C3  :2px    0.3166  -0.2382   0.2009   0.2048   0.0919   0.0385  -0.0999
   2 C3  :2px    0.0011   0.0134   0.1983   0.1313   0.0945   0.0457  -0.1710
   3 C3  :2px   -0.0244  -0.2298  -0.3917  -0.8229  -0.1150  -0.2639  -0.0779
   4 C3  :3d2-  -0.0060  -0.0114   0.0013  -0.0059  -0.0009   0.0014   0.0064
   5 C3  :3d1+  -0.0035   0.0134   0.0007  -0.0008  -0.0006   0.0096   0.0037
   6 C3  :3d2-  -0.0101  -0.0122  -0.0785   0.1325   0.1990  -0.1269  -0.2907
   7 C3  :3d1+  -0.0058   0.0216  -0.0452  -0.0994   0.1148   0.2171  -0.1675
   8 C3  :4f2-  -0.0011  -0.0004  -0.0014   0.0128  -0.0049  -0.0116  -0.0128
  10 C3  :4f3+  -0.0035  -0.0006   0.0026   0.0110  -0.0001   0.0061   0.0141
  11 C4  :2px    0.3164   0.4764   0.2011  -0.4092   0.0924  -0.0771  -0.1000
  12 C4  :2px    0.0011  -0.0268   0.1982  -0.2627   0.0950  -0.0906  -0.1718
  13 C4  :2px   -0.0243   0.4599  -0.3920   1.6457  -0.1165   0.5277  -0.0791
  14 C4  :3d1+  -0.0069   0.0065   0.0015   0.0110  -0.0011  -0.0120   0.0074
  15 C4  :3d1+  -0.0117  -0.0005  -0.0905  -0.1301   0.2294   0.0029  -0.3347
  16 C4  :4f1+   0.0020   0.0000  -0.0029  -0.0016  -0.0030   0.0244  -0.0193
  17 C4  :4f3+  -0.0046  -0.0035   0.0011  -0.0233  -0.0053   0.0113   0.0007
  18 H9  :2px    0.0021  -0.0035  -0.0023  -0.0017  -0.0142  -0.0183  -0.0440
  19 H9  :2px    0.0072  -0.0116   0.0239  -0.0109   0.1291   0.2947   0.6502
  20 H9  :3d2-  -0.0006   0.0010  -0.0029   0.0018   0.0066  -0.0099  -0.0215
  21 H9  :3d1+  -0.0004   0.0020  -0.0017   0.0046   0.0038   0.0009  -0.0124
  22 H10 :2px    0.0021   0.0070  -0.0023   0.0034  -0.0142   0.0365  -0.0440
  23 H10 :2px    0.0072   0.0232   0.0241   0.0223   0.1288  -0.5895   0.6508
  24 H10 :3d1+  -0.0007  -0.0038  -0.0034  -0.0078   0.0076   0.0163  -0.0249

    Orbital         8        9       10       11
   1 C3  :2px    0.1636  -0.0476  -1.4374  -0.9982
   2 C3  :2px    0.1771   0.0164   1.2684   0.9755
   3 C3  :2px    0.4869  -0.0668   0.3356   0.1656
   4 C3  :3d2-   0.0111  -0.0185   0.0118   0.0043
   5 C3  :3d1+  -0.0077   0.0331   0.0068  -0.0307
   6 C3  :3d2-  -0.4492   0.6617   0.0410  -0.0539
   7 C3  :3d1+   0.4154   0.2644   0.0236   0.1009
   8 C3  :4f2-  -0.0055   0.0381   0.0056   0.0590
   9 C3  :4f1+   0.0141  -0.0092  -0.0473   0.0176
  10 C3  :4f3+  -0.0119  -0.0093   0.0557   0.0735
  11 C4  :2px   -0.3272   0.0943  -1.4383   1.9956
  12 C4  :2px   -0.3533  -0.0346   1.2695  -1.9505
  13 C4  :2px   -0.9739   0.1337   0.3358  -0.3312
  14 C4  :3d1+  -0.0116  -0.0012   0.0137   0.0239
  15 C4  :3d1+   0.3650  -1.4131   0.0483  -0.0079
  16 C4  :4f1+  -0.0115  -0.0649  -0.0396   0.0234
  17 C4  :4f3+   0.0367  -0.0455   0.0615  -0.1009
  18 H9  :2px    0.0157   0.0281   0.0017   0.0062
  19 H9  :2px   -0.1985  -0.4771  -0.0647  -0.0486
  20 H9  :3d2-  -0.0064   0.0236   0.0108  -0.0184
  21 H9  :3d1+   0.0084   0.0041   0.0062   0.0551
  22 H10 :2px   -0.0313  -0.0562   0.0017  -0.0121
  23 H10 :2px    0.3955   0.9575  -0.0655   0.0975
  24 H10 :3d1+   0.0028  -0.0452   0.0126  -0.0237

 Molecular orbitals for symmetry species 3  (B2u)
 ------------------------------------------------

    Orbital         1        2        3        4        5        6        7
   1 C3  :1s     0.4997  -0.0099   0.0000   0.0002  -0.0048   0.0000   0.0086
   2 C3  :1s     0.0017   0.4465  -0.0003  -0.0777  -0.1016  -0.0002   0.1286
   3 C3  :1s     0.0011  -0.0115   0.0000   0.0026   0.0051   0.0002  -0.0086
   4 C3  :1s    -0.0005  -0.0828   0.0003   0.0366  -1.6755  -0.0174   3.1719
   5 C3  :2py    0.0005   0.0102  -0.2117   0.3075  -0.1503   0.0804  -0.1118
   6 C3  :2pz   -0.0003  -0.0966   0.3709   0.2522  -0.0910  -0.1386   0.0218
   7 C3  :2py   -0.0022   0.0019   0.0156  -0.0181  -0.1433   0.0918  -0.3117
   8 C3  :2pz   -0.0002   0.0169  -0.0273  -0.0196  -0.0531  -0.1585  -0.0375
   9 C3  :2py   -0.0010  -0.0043   0.0441  -0.0498  -0.6355  -0.3630  -1.3901
  10 C3  :2pz    0.0000   0.0287  -0.0770  -0.0341  -0.7097   0.6319   1.4298
  11 C3  :3d1-  -0.0000  -0.0013  -0.0054   0.0045  -0.0018   0.0161   0.0193
  12 C3  :3d0    0.0001   0.0084  -0.0082  -0.0080   0.0022   0.0242   0.0002
  13 C3  :3d2+  -0.0003  -0.0051  -0.0047  -0.0031   0.0032   0.0140  -0.0011
  14 C3  :3d1-  -0.0007   0.0010  -0.0050   0.0066  -0.0911  -0.0539  -0.1323
  15 C3  :3d0   -0.0006   0.0042  -0.0075  -0.0098  -0.0110  -0.0815  -0.0054
  16 C3  :3d2+  -0.0001  -0.0089  -0.0044  -0.0062   0.0523  -0.0465  -0.0373
  17 C3  :4f3-   0.0000  -0.0001   0.0010  -0.0009   0.0075   0.0057   0.0117
  20 C3  :4f2+  -0.0002  -0.0038  -0.0025   0.0006   0.0091  -0.0108  -0.0003
  21 C4  :2py    0.0009   0.1768   0.4261  -0.1358   0.0072  -0.1591  -0.1511
  22 C4  :2py   -0.0019  -0.0272  -0.0313   0.0163  -0.0511  -0.1813  -0.2487
  23 C4  :2py   -0.0010  -0.0538  -0.0887   0.0106   0.5933   0.7560  -3.8552
  24 C4  :3d1-   0.0001  -0.0069  -0.0109   0.0103  -0.0042   0.0323  -0.0182
  25 C4  :3d1-   0.0017   0.0004  -0.0100   0.0135   0.0623  -0.1090   0.1717
  26 C4  :4f3-   0.0001  -0.0007  -0.0043  -0.0005  -0.0004  -0.0174   0.0119
  28 H9  :1s     0.0003   0.1683   0.0019   0.3612  -0.0424  -0.0007   0.2306
  29 H9  :1s     0.0015  -0.0523  -0.0003  -0.0552   0.3387   0.0008   0.3411
  30 H9  :1s     0.0001  -0.0607  -0.0005  -0.0946   1.6300  -0.0014   0.3441
  31 H9  :2py    0.0001  -0.0029  -0.0017  -0.0066   0.0110  -0.0029  -0.0123
  33 H9  :2py   -0.0007   0.0024  -0.0041  -0.0058  -0.1773  -0.0284  -0.0794
  34 H9  :2pz   -0.0001   0.0023   0.0070  -0.0035  -0.0821   0.0489  -0.0629
  38 H10 :2py   -0.0000   0.0010   0.0033   0.0005   0.0021   0.0059  -0.0172
  39 H10 :2py   -0.0005  -0.0015   0.0081   0.0001  -0.0353   0.0562   0.0302

    Orbital         8        9       10       11       12       13       14
   1 C3  :1s     0.0199  -0.0134   0.0040  -0.0340   0.0000   0.0123  -0.0608
   2 C3  :1s     0.1432   0.0847  -0.1570  -0.3203   0.0002  -0.0198  -0.2952
   3 C3  :1s     0.0377  -0.0123  -0.0438  -0.0361  -0.0000   0.0263  -0.0994
   4 C3  :1s    -4.3259   0.8012   8.4023  -0.9271  -0.0062  -4.6305   4.6704
   5 C3  :2py    0.1703   0.3324   0.0791   0.0708   0.0709   0.0256  -0.1236
   6 C3  :2pz   -0.0666   0.1432  -0.2516  -0.1638  -0.1224  -0.1749  -0.0131
   7 C3  :2py   -0.7808  -0.4938   0.1194   0.0391  -0.1465   0.3374  -1.1628
   8 C3  :2pz   -0.4769   0.0121   0.2453   0.4238   0.2524   0.1581   0.3936
   9 C3  :2py    0.1275  -2.4162  -0.9340  -1.9067   0.4034   0.7536  -2.3831
  10 C3  :2pz   -1.1434  -0.1695   3.7640  -1.8696  -0.6973  -2.6105   0.7282
  11 C3  :3d1-  -0.0243  -0.0206  -0.0131   0.0072  -0.0050  -0.0123   0.0097
  12 C3  :3d0    0.0151   0.0025   0.0021  -0.0155  -0.0076   0.0192  -0.0096
  13 C3  :3d2+   0.0030   0.0124  -0.0120  -0.0144  -0.0044  -0.0108  -0.0131
  14 C3  :3d1-  -0.4059  -0.4109  -0.0044  -0.1943   0.2159   0.0550  -0.4738
  15 C3  :3d0    0.0914  -0.0547  -0.0544  -0.0215   0.3240  -0.0260  -0.1052
  16 C3  :3d2+   0.2865   0.0248  -0.3745  -0.1970   0.1874  -0.2805  -0.8628
  17 C3  :4f3-   0.0271   0.0293  -0.0049   0.0155  -0.0061  -0.0201   0.0253
  18 C3  :4f1-  -0.0041  -0.0017   0.0083  -0.0122   0.0077  -0.0153  -0.0029
  19 C3  :4f0    0.0417  -0.0061  -0.0266  -0.0307  -0.0083  -0.0282  -0.0430
  20 C3  :4f2+   0.0600   0.0040  -0.0508  -0.0301   0.0107  -0.0181  -0.0537
  21 C4  :2py    0.2860   0.0841   0.5143   0.3545  -0.1418   0.3288  -0.1016
  22 C4  :2py    0.0464  -0.5145  -0.3054  -0.6936   0.2916   0.0648  -1.8419
  23 C4  :2py    2.1030  -2.1200  -7.4465   1.3276  -0.7979   5.2689  -3.6397
  24 C4  :3d1-  -0.0011   0.0060   0.0204   0.0286  -0.0101  -0.0071   0.0161
  25 C4  :3d1-   0.0212   0.4718   0.4111   0.3989   0.4318   0.2266   1.3820
  26 C4  :4f3-  -0.0116   0.0134   0.0300   0.0300   0.0166  -0.0102   0.0499
  27 C4  :4f1-  -0.0027  -0.0153  -0.0220   0.0085   0.0018   0.0437  -0.0204
  28 H9  :1s    -0.0865  -0.2428   0.0049   0.1732   0.0001   0.0704   0.0853
  29 H9  :1s     1.8571   0.6661  -1.4106   0.5697   0.0008  -0.1066   0.1165
  30 H9  :1s     0.6646   1.9868  -0.6542   0.9323   0.0000   0.0608   0.9840
  31 H9  :2py   -0.0276   0.0029   0.0109  -0.0067   0.0154   0.0236   0.0344
  32 H9  :2pz   -0.0156   0.0034   0.0132  -0.0057  -0.0266  -0.0194   0.0187
  33 H9  :2py   -0.6101  -0.4510   0.4216   0.2919  -0.1635  -0.0520  -0.5108
  34 H9  :2pz   -0.3782  -0.2168   0.1485   0.1523   0.2813   0.6038  -0.2260
  35 H9  :3d1-   0.0490   0.0182  -0.0217  -0.0194   0.0038  -0.0303  -0.0022
  37 H9  :3d2+  -0.0431  -0.0187   0.0199   0.0161   0.0032   0.0035  -0.0143
  38 H10 :2py   -0.0005  -0.0030  -0.0120   0.0031  -0.0308   0.0571   0.0022
  39 H10 :2py    0.0446  -0.0758   0.1647   0.0282   0.3246  -1.0981  -0.1227
  40 H10 :3d1-  -0.0045   0.0064  -0.0064   0.0024   0.0076   0.0293   0.0104

 Molecular orbitals for symmetry species 4  (B1g)
 ------------------------------------------------

    Orbital         1        2        3        4        5        6        7
   1 C3  :2px    0.4140   0.2559  -0.0001  -0.0673   0.0176   0.3707   1.6582
   2 C3  :2px   -0.0033   0.2312   0.0001   0.0219  -0.0161   0.4003  -1.6306
   3 C3  :2px    0.0263  -0.7042   0.0009   0.3805   0.0422   0.1604  -0.3383
   4 C3  :3d2-  -0.0007  -0.0053   0.0036  -0.0039   0.0003   0.0227  -0.0396
   5 C3  :3d1+  -0.0078   0.0004  -0.0063  -0.0105  -0.0106  -0.0046  -0.0532
   6 C3  :3d2-  -0.0013  -0.0019   0.1575  -0.2485  -0.7259  -0.1380  -0.0077
   7 C3  :3d1+  -0.0163  -0.0954  -0.2736  -0.0335  -0.0245   0.6499  -0.1377
   8 C3  :4f2-  -0.0008   0.0086  -0.0058  -0.0013  -0.0438  -0.0165  -0.0583
   9 C3  :4f1+   0.0050  -0.0053  -0.0080  -0.0012   0.0008   0.0156   0.0892
  10 C3  :4f3+  -0.0015   0.0079  -0.0062  -0.0132   0.0104  -0.0388  -0.0732
  11 C4  :3d2-   0.0127  -0.0060  -0.0072   0.0144   0.0187   0.0307   0.0513
  12 C4  :3d2-   0.0268   0.1632  -0.3170  -0.1887  -0.6830  -1.2629   0.2312
  13 C4  :4f2-  -0.0046  -0.0098  -0.0116   0.0171   0.0318   0.0364   0.0148
  14 H9  :2px    0.0038  -0.0011   0.0001   0.0322  -0.0373   0.0359  -0.0335
  15 H9  :2px    0.0113  -0.0071  -0.0008  -0.4074   0.6766  -0.4111   0.1328
  16 H9  :3d2-  -0.0014  -0.0012   0.0033   0.0034  -0.0270   0.0031   0.0151
  17 H9  :3d1+  -0.0011   0.0023  -0.0057   0.0009  -0.0113   0.0108  -0.0217
  18 H10 :3d2-   0.0005  -0.0052  -0.0066   0.0019  -0.0074  -0.0157   0.0530

    Orbital         8        9       10       11
   1 C3  :2px   -0.0022   0.4418  -0.3985  -0.2360
   2 C3  :2px    0.0023  -0.5509   0.4947   0.3706
   3 C3  :2px    0.0005  -0.1699   0.2215   0.2712
   4 C3  :3d2-   0.1280   0.0890  -0.1527   0.3637
   5 C3  :3d1+  -0.2215   0.1744  -0.1429   0.0640
   6 C3  :3d2-  -0.0625   0.1199   0.3188  -0.6257
   7 C3  :3d1+   0.1087  -0.2771   0.2723   0.1085
   8 C3  :4f2-   0.1108   0.2863   0.2551  -0.2381
[...]
   1 C3  :1s     0.2875   0.4092  -0.0057  -0.0015   0.0001  -0.0028  -0.0132
   2 C3  :1s     0.0010   0.0021   0.2577   0.2407  -0.0436  -0.0586  -0.1687
   3 C3  :1s     0.0006   0.0005  -0.0066  -0.0052   0.0015   0.0030  -0.0351
   4 C3  :1s    -0.0003   0.0125  -0.0478   0.0274   0.0213  -0.9850   7.1176
   5 C3  :2py   -0.0003   0.0004  -0.0963   0.1712   0.2550  -0.0909  -0.0506
   6 C3  :2pz    0.0008   0.0002   0.1214   0.0996   0.0134  -0.0451  -0.0292
   7 C3  :2py   -0.0002  -0.0011   0.0168  -0.0099  -0.0198  -0.0528  -0.1574
   8 C3  :2pz   -0.0020  -0.0007  -0.0176  -0.0058   0.0048  -0.0820  -0.0914
   9 C3  :2py    0.0000  -0.0050   0.0286  -0.0304  -0.0346  -0.7020  -4.4227
  10 C3  :2pz   -0.0010  -0.0029  -0.0374  -0.0176  -0.0098   0.1896  -2.5525
  14 C3  :3d1-   0.0006  -0.0033   0.0007   0.0046   0.0117  -0.0157  -0.1408
  15 C3  :3d0    0.0011   0.0018   0.0028   0.0010   0.0060   0.0471   0.1456
  16 C3  :3d2+   0.0008   0.0007  -0.0049  -0.0072   0.0031   0.0615  -0.0892
  19 C3  :4f0   -0.0001  -0.0006  -0.0028  -0.0015   0.0013   0.0024  -0.0155
  21 C4  :1s     0.5781  -0.4070  -0.0114   0.0015   0.0003  -0.0056   0.0132
  22 C4  :1s     0.0020  -0.0021   0.5155  -0.2400  -0.0907  -0.1177   0.1688
  23 C4  :1s     0.0013  -0.0005  -0.0133   0.0052   0.0030   0.0057   0.0351
  24 C4  :1s    -0.0005  -0.0125  -0.0954  -0.0277   0.0420  -1.9229  -7.1087
  25 C4  :2pz    0.0003  -0.0004  -0.0454  -0.2016   0.4522  -0.2025   0.0579
  26 C4  :2pz   -0.0023   0.0013   0.0117   0.0118  -0.0294  -0.1753   0.1821
  27 C4  :2pz   -0.0010   0.0058   0.0122   0.0358  -0.0694  -1.0543   5.1081
  29 C4  :3d2+  -0.0004   0.0004  -0.0106  -0.0023   0.0060  -0.0003   0.0034
  30 C4  :3d0   -0.0005   0.0031   0.0070  -0.0082   0.0117  -0.1173   0.0654
  31 C4  :3d2+   0.0001   0.0021  -0.0090   0.0031   0.0062  -0.0003   0.2109
  32 C4  :4f0    0.0001  -0.0006   0.0060  -0.0025  -0.0012  -0.0139  -0.0054
  33 C4  :4f2+   0.0001  -0.0005   0.0050  -0.0006  -0.0045   0.0041  -0.0181
  34 H9  :1s     0.0002   0.0001   0.0972   0.3494   0.2104  -0.0245  -0.0344
  35 H9  :1s     0.0008   0.0029  -0.0301  -0.0595  -0.0322   0.1949   0.2257
  36 H9  :1s     0.0000   0.0009  -0.0351  -0.0966  -0.0551   0.9375   2.8534
  39 H9  :2py   -0.0001  -0.0007   0.0022  -0.0045  -0.0034  -0.0820  -0.0434
  40 H9  :2pz   -0.0005  -0.0004  -0.0002  -0.0026  -0.0018  -0.0826  -0.0251
  44 H10 :1s     0.0004  -0.0001   0.1947  -0.3528   0.4155  -0.0493   0.0347
  45 H10 :1s     0.0018  -0.0029  -0.0606   0.0602  -0.0636   0.3935  -0.2261
  46 H10 :1s     0.0001  -0.0009  -0.0703   0.0976  -0.1090   1.8878  -2.8563
  47 H10 :2pz    0.0001  -0.0002  -0.0042   0.0073  -0.0090   0.0139  -0.0074
  48 H10 :2pz   -0.0008   0.0008   0.0038   0.0052  -0.0077  -0.2252   0.0499
  49 H10 :3d0   -0.0001   0.0001  -0.0001  -0.0014   0.0025   0.0136  -0.0052

    Orbital         8        9       10       11       12       13       14
   1 C3  :1s    -0.0050  -0.0112  -0.0165  -0.0077  -0.0002   0.0025  -0.0194
   2 C3  :1s    -0.0743  -0.0824   0.2429   0.0494  -0.0999  -0.0897  -0.1840
   3 C3  :1s     0.0050  -0.0213  -0.0830  -0.0070   0.0734  -0.0253  -0.0206
   4 C3  :1s    -1.8375   2.4436  17.7026   0.4467  -0.6820   4.8578  -0.5433
   5 C3  :2py   -0.0219   0.0662   0.1130   0.1434   0.1503  -0.2514  -0.1647
   6 C3  :2pz    0.1368  -0.2474   0.0644   0.1670   0.0879   0.3689   0.2601
   7 C3  :2py    0.0373   0.4767  -0.3132   0.0120  -0.2926   0.2444   0.4230
   8 C3  :2pz    0.2703   0.2283  -0.1818  -0.5085  -0.1705  -0.1642  -0.4507
   9 C3  :2py   -1.4267   1.1758  -9.0646  -0.1686  -3.0174   3.7747  -1.8631
  10 C3  :2pz    3.0419  -1.4422  -5.2377  -2.2123  -1.7613  -5.2821   0.2464
  11 C3  :3d1-  -0.0005   0.0147  -0.0069  -0.0084   0.0080   0.0042   0.0207
  12 C3  :3d0    0.0158  -0.0079  -0.0027   0.0067   0.0027   0.0189   0.0159
  13 C3  :3d2+   0.0098  -0.0014   0.0128   0.0102  -0.0138   0.0033   0.0060
  14 C3  :3d1-  -0.0240   0.2178  -0.3255   0.0371  -0.9101   0.2338   0.1170
  15 C3  :3d0   -0.1458  -0.0685   0.3141   0.3759   0.3195   0.3249   0.3325
  16 C3  :3d2+  -0.0644  -0.1725  -0.1679   0.2502   0.5000  -0.0107   0.0862
  17 C3  :4f3-   0.0017  -0.0200   0.0185   0.0043   0.0177  -0.0261  -0.0014
  18 C3  :4f1-   0.0027   0.0102  -0.0048  -0.0113  -0.0046  -0.0055   0.0146
  19 C3  :4f0    0.0074  -0.0305  -0.0292  -0.0137   0.0156  -0.0365  -0.0341
  20 C3  :4f2+  -0.0104  -0.0262  -0.0086   0.0157   0.0255  -0.0020   0.0039
  21 C4  :1s    -0.0099  -0.0226   0.0165  -0.0156   0.0004   0.0048  -0.0391
  22 C4  :1s    -0.1481  -0.1629  -0.2436   0.0973   0.1001  -0.1805  -0.3700
  23 C4  :1s     0.0099  -0.0435   0.0828  -0.0145  -0.0736  -0.0503  -0.0417
  24 C4  :1s    -3.6616   5.0766 -17.6579   0.9254   0.7242   9.7226  -1.0565
  25 C4  :2pz    0.0987  -0.1313  -0.1309   0.4149  -0.1738  -0.0652  -0.0228
  26 C4  :2pz    0.3360   1.0578   0.3681  -0.4898   0.3410   0.2613   0.2834
  27 C4  :2pz    0.5714   0.4952  10.4803  -2.5240   3.4953   1.2235  -2.9826
  28 C4  :3d0   -0.0175   0.0255   0.0134  -0.0275  -0.0147  -0.0026   0.0193
  29 C4  :3d2+  -0.0086   0.0213  -0.0067  -0.0033   0.0069  -0.0168   0.0048
  30 C4  :3d0    0.0878   0.5847   0.1766  -0.3686   1.0475   0.2857  -0.0164
  31 C4  :3d2+   0.0898   0.0656   0.4496  -0.1476   0.2873  -0.2311  -0.2237
  32 C4  :4f0    0.0076   0.0880  -0.0085  -0.0179   0.0350   0.0600   0.0297
  33 C4  :4f2+  -0.0083   0.0177  -0.0348   0.0277   0.0005   0.0205   0.0423
  34 H9  :1s    -0.1329   0.0510  -0.2254  -0.1407   0.0826   0.0024   0.0999
  35 H9  :1s    -0.1971  -1.0657   0.4069   0.3837   2.3342  -0.8161   0.3315
  36 H9  :1s    -0.2003  -0.3932   3.6511   1.1472   1.5806  -0.3810   0.5378
  37 H9  :2py   -0.0028   0.0156  -0.0046   0.0034  -0.0238   0.0132  -0.0057
  38 H9  :2pz    0.0156   0.0095  -0.0026  -0.0010  -0.0138  -0.0044  -0.0002
  39 H9  :2py    0.0633   0.3760  -0.1039  -0.2170  -0.4731   0.1478   0.1515
  40 H9  :2pz    0.0063   0.1723  -0.0602  -0.2011  -0.2728   0.2501   0.1162
  41 H9  :3d1-  -0.0058  -0.0256   0.0104   0.0143   0.0212  -0.0162  -0.0098
  43 H9  :3d2+   0.0051   0.0271  -0.0008  -0.0076  -0.0130   0.0084   0.0104
  44 H10 :1s    -0.2661   0.0984   0.2261  -0.2799  -0.0837   0.0045   0.1999
  45 H10 :1s    -0.3989  -2.1524  -0.4189   0.7759  -2.3408  -1.6289   0.6540
  46 H10 :1s    -0.4023  -0.7554  -3.6653   2.2978  -1.5833  -0.7516   1.0767
  47 H10 :2pz    0.0107   0.0367   0.0055   0.0048   0.0276   0.0185  -0.0099
  48 H10 :2pz    0.1177   0.8309   0.1244  -0.5778   0.5465   0.5067   0.3809
  49 H10 :3d0   -0.0155  -0.0754  -0.0095   0.0307  -0.0250  -0.0347  -0.0291

    Orbital        15
   1 C3  :1s    -0.0486
   2 C3  :1s    -0.5557
   3 C3  :1s    -0.2128
   4 C3  :1s    23.1438
   5 C3  :2py    0.4125
   6 C3  :2pz    0.2381
   7 C3  :2py   -0.0833
   8 C3  :2pz   -0.0509
   9 C3  :2py   -7.9293
  10 C3  :2pz   -4.5732
  11 C3  :3d1-  -0.0143
  12 C3  :3d0    0.0164
  13 C3  :3d2+  -0.0115
  14 C3  :3d1-   0.3298
  15 C3  :3d0    0.3283
  16 C3  :3d2+  -0.9466
  19 C3  :4f0   -0.0836
  20 C3  :4f2+  -0.0592
  21 C4  :1s     0.0485
  22 C4  :1s     0.5546
  23 C4  :1s     0.2127
  24 C4  :1s   -23.1310
  25 C4  :2pz   -0.4768
  26 C4  :2pz    0.0950
  27 C4  :2pz    9.1547
  29 C4  :3d2+   0.0239
  30 C4  :3d0   -0.8239
  31 C4  :3d2+   0.6611
  32 C4  :4f0   -0.0754
  33 C4  :4f2+  -0.0694
  34 H9  :1s     0.1292
  35 H9  :1s    -1.7097
  36 H9  :1s     1.8845
  37 H9  :2py    0.0199
  38 H9  :2pz    0.0115
  39 H9  :2py    0.4402
  40 H9  :2pz    0.2541
  41 H9  :3d1-  -0.0143
  43 H9  :3d2+   0.0188
  44 H10 :1s    -0.1291
  45 H10 :1s     1.7161
  46 H10 :1s    -1.8891
  47 H10 :2pz   -0.0231
  48 H10 :2pz   -0.5079
  49 H10 :3d0    0.0226

 Molecular orbitals for symmetry species 6  (B2g)
 ------------------------------------------------

    Orbital         1        2        3        4        5        6        7
   1 C3  :2px    0.2389   0.3382   0.1476   0.3752  -0.0391  -0.1545   0.0098
   2 C3  :2px   -0.0019  -0.0277   0.1333   0.1805   0.0128  -0.0475  -0.0089
   3 C3  :2px    0.0152   0.9592  -0.4063  -1.9537   0.2202  -1.5980   0.0244
   4 C3  :3d2-  -0.0078   0.0120   0.0004  -0.0116  -0.0105   0.0021  -0.0106
   5 C3  :3d1+   0.0083   0.0070  -0.0058  -0.0067   0.0083   0.0012   0.0126
   6 C3  :3d2-  -0.0163  -0.0308  -0.0955   0.2153  -0.0342   0.0271  -0.0252
   7 C3  :3d1+   0.0175  -0.0177   0.1085   0.1243  -0.2091   0.0160  -0.6977
   8 C3  :4f2-  -0.0031   0.0013  -0.0007   0.0071   0.0091  -0.0172  -0.0069
   9 C3  :4f1+  -0.0007   0.0002  -0.0108  -0.0123   0.0128  -0.0024   0.0256
  10 C3  :4f3+  -0.0036  -0.0015  -0.0014   0.0092   0.0028   0.0194   0.0254
  11 C4  :2px    0.4780  -0.3380   0.2958  -0.3750  -0.0778   0.1545   0.0199
  12 C4  :2px   -0.0038   0.0279   0.2669  -0.1806   0.0257   0.0479  -0.0192
  13 C4  :2px    0.0305  -0.9592  -0.8134   1.9526   0.4385   1.5973   0.0485
  14 C4  :3d1+  -0.0052  -0.0139  -0.0050   0.0133  -0.0099  -0.0024  -0.0058
  15 C4  :3d1+  -0.0108   0.0355  -0.0569  -0.2490  -0.2680  -0.0315  -0.7412
  16 C4  :4f1+   0.0010  -0.0020  -0.0002   0.0026   0.0100   0.0261  -0.0433
  17 C4  :4f3+  -0.0054   0.0001   0.0137  -0.0166  -0.0064  -0.0011  -0.0221
  18 H9  :2px    0.0022   0.0067  -0.0006  -0.0018   0.0186  -0.0382  -0.0216
  19 H9  :2px    0.0065   0.0374  -0.0041  -0.0404  -0.2353   0.6553   0.3911
  20 H9  :3d2-  -0.0011  -0.0044   0.0023   0.0087   0.0009  -0.0115  -0.0113
  21 H9  :3d1+  -0.0002  -0.0025  -0.0039   0.0050   0.0024  -0.0066  -0.0139
  22 H10 :2px    0.0044  -0.0067  -0.0013   0.0018   0.0371   0.0382  -0.0430
  23 H10 :2px    0.0130  -0.0375  -0.0079   0.0406  -0.4700  -0.6560   0.7826
  24 H10 :3d1+  -0.0020   0.0050   0.0001  -0.0101   0.0039   0.0134  -0.0337

    Orbital         8        9       10       11
   1 C3  :2px   -0.2144   0.4682  -0.9567  -1.2417
   2 C3  :2px   -0.2317   0.0320   0.9411   1.3907
   3 C3  :2px   -0.0924   0.3038   0.1951  -0.1269
   4 C3  :3d2-   0.0047   0.0255   0.0529  -0.0752
   5 C3  :3d1+  -0.0280   0.0147  -0.0212  -0.0436
   6 C3  :3d2-  -0.6497  -1.2447   0.1379  -0.3216
   7 C3  :3d1+   0.8898  -0.7182  -0.1521  -0.1850
   8 C3  :4f2-  -0.0114  -0.0447   0.0254   0.0024
   9 C3  :4f1+  -0.0379   0.0290  -0.0629  -0.1019
  10 C3  :4f3+   0.0001   0.0047   0.0334   0.1294
  11 C4  :2px   -0.4288  -0.4677  -1.9153   1.2412
  12 C4  :2px   -0.4625  -0.0304   1.8840  -1.3898
  13 C4  :2px   -0.1858  -0.3037   0.3911   0.1268
  14 C4  :3d1+  -0.0201  -0.0294   0.0704   0.0875
  15 C4  :3d1+  -0.2353   1.4386   0.0874   0.3712
  16 C4  :4f1+  -0.0207   0.0325  -0.0217   0.0991
  17 C4  :4f3+   0.0428   0.0426   0.1475  -0.1313
  18 H9  :2px   -0.0207  -0.0415   0.0194  -0.0323
  19 H9  :2px    0.2368   0.7191  -0.0766   0.2093
  20 H9  :3d2-  -0.0108  -0.0356   0.0218   0.0444
  21 H9  :3d1+   0.0094  -0.0205  -0.0404   0.0258
  22 H10 :2px   -0.0414   0.0415   0.0386   0.0326
  23 H10 :2px    0.4745  -0.7211  -0.1541  -0.2101
  24 H10 :3d1+  -0.0093   0.0412  -0.0024  -0.0516

 Molecular orbitals for symmetry species 7  (B3g)
 ------------------------------------------------

    Orbital         1        2        3        4        5        6        7
   1 C3  :1s     0.4999  -0.0049  -0.0007  -0.0137  -0.0036  -0.0236  -0.0098
   2 C3  :1s     0.0015   0.3599  -0.0199  -0.1947  -0.1760   0.1276   0.2149
   3 C3  :1s     0.0008  -0.0104   0.0016   0.0080   0.0432  -0.0624   0.0598
   4 C3  :1s     0.0009  -0.0030   0.0039  -1.1903  -5.5167   3.6660  -4.1867
   5 C3  :2py    0.0003  -0.0088   0.3582  -0.1169   0.1055  -0.0374   0.2910
   6 C3  :2pz    0.0006   0.1793  -0.0244  -0.0314   0.0232  -0.2088   0.1010
   7 C3  :2py   -0.0011   0.0035  -0.0209  -0.0672   0.1432   0.5503  -0.4537
   8 C3  :2pz   -0.0014  -0.0182   0.0074  -0.0468   0.2279   0.3231  -0.3091
   9 C3  :2py   -0.0007   0.0014  -0.0328  -1.4209   2.1662  -0.1646  -2.8792
  10 C3  :2pz   -0.0009  -0.0515   0.0176  -0.6039   2.3670  -0.0920  -1.3510
  11 C3  :3d1-   0.0000  -0.0020   0.0164  -0.0099   0.0095   0.0046  -0.0154
  13 C3  :3d2+  -0.0004  -0.0072  -0.0003   0.0027   0.0005   0.0193   0.0034
  14 C3  :3d1-  -0.0011  -0.0009   0.0242  -0.0122   0.0875   0.6134  -0.4271
  15 C3  :3d0    0.0008   0.0022  -0.0050  -0.0053  -0.1944  -0.2373   0.0414
  16 C3  :3d2+   0.0007  -0.0133  -0.0023   0.0602   0.0820  -0.4055   0.4916
  17 C3  :4f3-   0.0000   0.0005  -0.0026   0.0065  -0.0086  -0.0206   0.0298
  19 C3  :4f0   -0.0005  -0.0042   0.0019   0.0009   0.0263  -0.0225   0.0257
  20 C3  :4f2+  -0.0003  -0.0042   0.0018   0.0030   0.0039  -0.0311   0.0330
  21 C4  :2py    0.0008   0.3193  -0.4004   0.0625  -0.0646  -0.3261  -0.1069
  22 C4  :2py   -0.0013  -0.0350   0.0337  -0.0131   0.2519   0.0114  -0.0514
  23 C4  :2py   -0.0008  -0.0905   0.0632   0.3816   1.9411  -0.0342   1.6833
  24 C4  :3d1-   0.0001  -0.0084   0.0131   0.0016   0.0249   0.0122  -0.0103
  25 C4  :3d1-   0.0006  -0.0092   0.0148   0.0314  -0.1340  -0.0958   0.0308
  26 C4  :4f3-   0.0001  -0.0027   0.0030  -0.0045  -0.0125  -0.0039  -0.0123
  27 C4  :4f1-   0.0000  -0.0019  -0.0010  -0.0012   0.0054  -0.0167   0.0082
  28 H9  :1s     0.0002   0.2482   0.3580  -0.0738   0.0065  -0.1332  -0.2502
  29 H9  :1s     0.0019  -0.0573  -0.0545   0.2942  -0.1468  -1.8602   1.9853
  30 H9  :1s     0.0000  -0.0822  -0.0741   2.0593  -1.6839  -0.0666   2.4419
  31 H9  :2py    0.0002  -0.0053  -0.0052   0.0118  -0.0059   0.0240  -0.0109
  32 H9  :2pz    0.0001  -0.0017  -0.0044   0.0090   0.0046   0.0195  -0.0070
  33 H9  :2py   -0.0005  -0.0033  -0.0009  -0.1314   0.0571   0.4627  -0.7002
  34 H9  :2pz   -0.0004   0.0014  -0.0041  -0.0839   0.0244   0.2231  -0.4282
  35 H9  :3d1-  -0.0001   0.0001   0.0016   0.0064  -0.0065  -0.0288   0.0352
  37 H9  :3d2+   0.0001  -0.0012  -0.0003  -0.0057   0.0030   0.0239  -0.0293
  38 H10 :2py   -0.0000   0.0024  -0.0024   0.0038   0.0139   0.0096   0.0007
  39 H10 :2py   -0.0002   0.0057  -0.0062  -0.0140  -0.0149  -0.0753  -0.0493

    Orbital         8        9       10       11       12       13
   1 C3  :1s    -0.0003  -0.0236  -0.0000  -0.0404  -0.0260  -0.0000
   2 C3  :1s     0.0063  -0.3334  -0.0010  -0.2660  -0.2481  -0.0003
   3 C3  :1s     0.0021  -0.1284  -0.0003  -0.1107   0.0162   0.0006
   4 C3  :1s    -0.1800  10.4126   0.0489   8.2928  -3.2774  -0.0064
   5 C3  :2py   -0.0451   0.2919  -0.3020  -0.1481   0.0556   0.2348
   6 C3  :2pz    0.0967   0.2880   0.5246  -0.1078   0.2316  -0.4030
   7 C3  :2py   -0.1805   0.1671   0.1590   0.4696   0.8902   0.0948
   8 C3  :2pz    0.2782  -0.1876  -0.2760  -0.1614   0.8731  -0.1536
   9 C3  :2py   -6.3211  -2.7331   4.5843  -6.4448   0.3588   5.9864
  10 C3  :2pz   10.7852  -2.9162  -7.9685  -3.6125   1.3109 -10.3537
  11 C3  :3d1-   0.0045  -0.0087   0.0117   0.0141  -0.0089   0.0008
  12 C3  :3d0    0.0074   0.0255   0.0177   0.0072   0.0176   0.0009
  13 C3  :3d2+   0.0043   0.0147   0.0102   0.0009  -0.0141   0.0006
  14 C3  :3d1-  -0.1800   0.2539   0.2543   0.1475   0.9595  -0.1054
  15 C3  :3d0   -0.2468   0.3808   0.3808   0.1793  -0.5380  -0.1584
  16 C3  :3d2+  -0.1268  -0.4956   0.2176  -0.3981  -0.4218  -0.0840
  17 C3  :4f3-   0.0148  -0.0012  -0.0159   0.0095  -0.0292  -0.0215
  18 C3  :4f1-   0.0230  -0.0145  -0.0103  -0.0035   0.0022  -0.0477
  19 C3  :4f0    0.0090  -0.0709  -0.0137  -0.0536  -0.0023  -0.0089
  20 C3  :4f2+  -0.0094  -0.0342   0.0175  -0.0293  -0.0345   0.0125
  21 C4  :2py   -0.1109   0.2103  -0.6045  -0.0387   0.3451   0.4665
  22 C4  :2py   -0.3328  -0.4920   0.3163  -0.7468   0.6278   0.1887
  23 C4  :2py  -12.4179  -2.3580   9.1716   0.1870   1.8953  11.9492
  24 C4  :3d1-  -0.0103   0.0421  -0.0234   0.0256   0.0054  -0.0012
  25 C4  :3d1-   0.3314   0.3971  -0.5054   0.0707  -0.2198   0.2045
  26 C4  :4f3-   0.0079   0.0180  -0.0212   0.0059  -0.0181  -0.0043
  27 C4  :4f1-  -0.0286  -0.0344   0.0199  -0.0036  -0.0058   0.0546
  28 H9  :1s    -0.0075  -0.0812   0.0001   0.1771   0.1426  -0.0020
  29 H9  :1s     0.0649  -1.2196  -0.0035   0.2005  -1.8057   0.0029
  30 H9  :1s     0.0714   1.2869   0.0026   2.1761  -0.5083  -0.0050
  31 H9  :2py   -0.0109   0.0190   0.0047  -0.0065   0.0054   0.0209
  32 H9  :2pz    0.0180   0.0100  -0.0082   0.0030   0.0363  -0.0370
  33 H9  :2py    0.0161   0.2362  -0.1031   0.5456   0.8692  -0.4860
  34 H9  :2pz   -0.0807   0.1897   0.1810   0.2948   0.0111   0.8495
  35 H9  :3d1-   0.0019  -0.0150  -0.0024  -0.0283  -0.0392  -0.0134
  36 H9  :3d0    0.0010  -0.0028  -0.0035   0.0029   0.0174  -0.0200
  37 H9  :3d2+  -0.0003   0.0117  -0.0020   0.0219   0.0321  -0.0115
  38 H10 :2py   -0.0211  -0.0017   0.0094   0.0118   0.0573   0.0424
  39 H10 :2py    0.0759   0.0934  -0.2078  -0.0345  -0.8476  -0.9778
  40 H10 :3d1-  -0.0013  -0.0091   0.0047  -0.0050   0.0148   0.0268

 Molecular orbitals for symmetry species 8  (Au )
 ------------------------------------------------

    Orbital         1        2        3        4        5        6        7
   1 C3  :2px    0.4125  -0.3547   0.0667  -0.2833  -0.0823   0.0012  -1.7286
   2 C3  :2px   -0.0232  -0.2274   0.0790  -0.3062   0.0287   0.0010   1.6896
   3 C3  :2px    0.3989   1.4260  -0.4571  -0.8444  -0.1159   0.0004   0.2872
   4 C3  :3d2-  -0.0001   0.0076   0.0112  -0.0052   0.0117  -0.0187  -0.0262
   5 C3  :3d1+   0.0115   0.0059   0.0014  -0.0111  -0.0184   0.0324   0.0042
   6 C3  :3d2-  -0.0075  -0.0534   0.0705   0.1044   1.0298   0.8939   0.0392
   7 C3  :3d1+   0.0122  -0.1329  -0.1269   0.4493   0.6622  -1.5520  -0.0552
   8 C3  :4f2-  -0.0023  -0.0081  -0.0195   0.0103   0.0570   0.0330   0.0088
   9 C3  :4f1+   0.0012   0.0194   0.0060  -0.0236  -0.0283   0.0453  -0.0964
  10 C3  :4f3+  -0.0021  -0.0041   0.0111   0.0213  -0.0258   0.0350   0.0283
  11 C4  :3d2-   0.0200   0.0026  -0.0088  -0.0141  -0.0436  -0.0374   0.0335
  12 C4  :3d2-   0.0287  -0.1755  -0.2907   0.6749   0.1173   1.7891  -0.1313
  13 C4  :4f2-  -0.0030   0.0140   0.0006   0.0007  -0.0091  -0.0660  -0.0929
  14 H9  :2px    0.0061   0.0029  -0.0316  -0.0271   0.0487  -0.0000   0.0106
  15 H9  :2px    0.0201   0.0192   0.5103   0.3431  -0.8274   0.0006  -0.0840
  16 H9  :3d2-  -0.0032  -0.0067  -0.0105  -0.0009   0.0314   0.0162   0.0341
  17 H9  :3d1+  -0.0010  -0.0018  -0.0099   0.0065   0.0236  -0.0281  -0.0185
  18 H10 :3d2-   0.0014   0.0036  -0.0066   0.0120   0.0095   0.0325  -0.0656

    Orbital         8        9       10
   1 C3  :2px   -0.0288  -0.0148   0.4416
   2 C3  :2px   -0.0800   0.1640  -0.8616
   3 C3  :2px   -0.3491  -0.1984  -0.5984
   4 C3  :3d2-   0.1379  -0.1916  -0.3370
   5 C3  :3d1+  -0.1677   0.0104  -0.2893
   6 C3  :3d2-  -0.3041   0.2134   0.8561
   7 C3  :3d1+   0.0459  -0.0133   0.7914
   8 C3  :4f2-   0.1464  -0.2623   0.1130
   9 C3  :4f1+  -0.1705   0.0692  -0.2725
  10 C3  :4f3+   0.2147   0.2898  -0.1046
  11 C4  :3d2-  -0.4285   0.2102  -0.1646
  12 C4  :3d2-   0.3816  -0.2363   0.5119
  13 C4  :4f2-   0.1414   0.1394  -0.3696
  14 H9  :2px   -0.0140  -0.2529  -0.1016
  15 H9  :2px    0.2363   0.2233  -0.3219
  16 H9  :3d2-  -0.0032   0.0484   0.1230
  17 H9  :3d1+   0.0584   0.0294   0.0456
  18 H10 :3d2-   0.1040   0.0025  -0.0441

  Total CPU  time used in SIRIUS :  30.10 seconds
  Total wall time used in SIRIUS :  30.14 seconds

 
     Date and time (Linux)  : Mon May  4 22:08:09 2026
     Host name              : debian                                  


                     .---------------------------------------.
                     | End of Wave Function Section (SIRIUS) |
                     `---------------------------------------'

  Total CPU  time used in DALTON:  30.31 seconds
  Total wall time used in DALTON:  30.35 seconds

 
     Date and time (Linux)  : Mon May  4 22:08:09 2026
     Host name              : debian                                  
