

     ************************************************************************
     *************** Dalton - An Electronic Structure Program ***************
     ************************************************************************

    This is output from DALTON release Dalton2025.0-dev (2025)
         ( Web site: http://daltonprogram.org )

   ----------------------------------------------------------------------------

    NOTE:
     
    Dalton is an experimental code for the evaluation of molecular
    properties using (MC)SCF, DFT, CI, and CC wave functions.
    The authors accept no responsibility for the performance of
    the code or for the correctness of the results.
     
    The code (in whole or part) is provided under a licence and
    is not to be reproduced for further distribution without
    the written permission of the authors or their representatives.
     
    See the home page "http://daltonprogram.org" for further information.
     
    If results obtained with this code are published,
    the appropriate citations would be both of:
     
       K. Aidas, C. Angeli, K. L. Bak, V. Bakken,
       R. Bast, L. Boman, O. Christiansen, R. Cimiraglia,
       S. Coriani, P. Dahle, E. K. Dalskov, U. Ekstroem,
       T. Enevoldsen, J. J. Eriksen, P. Ettenhuber, B. Fernandez,
       L. Ferrighi, H. Fliegl, L. Frediani, K. Hald, A. Halkier,
       C. Haettig, H. Heiberg, T. Helgaker, A. C. Hennum,
       H. Hettema, E. Hjertenaes, S. Hoest, I.-M. Hoeyvik,
       M. F. Iozzi, B. Jansik, H. J. Aa. Jensen, D. Jonsson,
       P. Joergensen, J. Kauczor, S. Kirpekar,
       T. Kjaergaard, W. Klopper, S. Knecht, R. Kobayashi, H. Koch,
       J. Kongsted, A. Krapp, K. Kristensen, A. Ligabue,
       O. B. Lutnaes, J. I. Melo, K. V. Mikkelsen, R. H. Myhre,
       C. Neiss, C. B. Nielsen, P. Norman, J. Olsen,
       J. M. H. Olsen, A. Osted, M. J. Packer, F. Pawlowski,
       T. B. Pedersen, P. F. Provasi, S. Reine, Z. Rinkevicius,
       T. A. Ruden, K. Ruud, V. Rybkin, P. Salek, C. C. M. Samson,
       A. Sanchez de Meras, T. Saue, S. P. A. Sauer,
       B. Schimmelpfennig, K. Sneskov, A. H. Steindal,
       K. O. Sylvester-Hvid, P. R. Taylor, A. M. Teale,
       E. I. Tellgren, D. P. Tew, A. J. Thorvaldsen, L. Thoegersen,
       O. Vahtras, M. A. Watson, D. J. D. Wilson, M. Ziolkowski
       and H. Agren,
       "The Dalton quantum chemistry program system",
       WIREs Comput. Mol. Sci. 2014, 4:269-284 (doi: 10.1002/wcms.1172)
     
    and
     
       Dalton, a molecular electronic structure program,
       Release Dalton2025.0-dev (2025), see http://daltonprogram.org
   ----------------------------------------------------------------------------

    Authors in alphabetical order (Major contribution(s) in parenthesis):

  Kestutis Aidas,              Vilnius University,        Lithuania   (QM/MM)
  Celestino Angeli,            University of Ferrara,     Italy       (NEVPT2)
  Juan J. Aucar,               Northeast National UniversiArgentina   (LRESC, Relativistic Effects on NMR Shieldings and EFG)
  Keld L. Bak,                 UNI-C,                     Denmark     (AOSOPPA, non-adiabatic coupling, magnetic properties)
  Vebjoern Bakken,             University of Oslo,        Norway      (DALTON; geometry optimizer, symmetry detection)
  Radovan Bast,                UiT The Arctic U. of NorwayNorway      (DALTON installation and execution frameworks)
  Pablo Baudin,                University of Valencia,    Spain       (Cholesky excitation energies)
  Linus Boman,                 NTNU,                      Norway      (Cholesky decomposition and subsystems)
  Bruno N. Cabral Tenorio,     Technical Univ. of Denmark,Denmark     (Lanczos-based CC methods)
  Ove Christiansen,            Aarhus University,         Denmark     (CC module)
  Renzo Cimiraglia,            University of Ferrara,     Italy       (NEVPT2)
  Sonia Coriani,               Technical Univ. of Denmark,Denmark     (CC and RESPONS modules)
  Janusz Cukras,               University of Warsaw,      Poland      (MChD in RESPONS)
  Paal Dahle,                  University of Oslo,        Norway      (Parallelization)
  Erik K. Dalskov,             UNI-C,                     Denmark     (SOPPA)
  Thomas Enevoldsen,           Univ. of Southern Denmark, Denmark     (SOPPA)
  Janus J. Eriksen,            Aarhus University,         Denmark     (Polarizable embedding, TDA)
  Rasmus Faber,                Technical Univ. of Denmark,Denmark     (Vib.avg. NMR w. SOPPA, parallel AO-SOPPA, CVS-CC and EOMCC)
  Tobias Fahleson,             KTH Stockholm,             Sweden      (Damped cubic response)
  Berta Fernandez,             U. of Santiago de CompostelSpain       (Doublet spin, ESR in RESPONS)
  Lara Ferrighi,               Aarhus University,         Denmark     (PCM Cubic response)
  Heike Fliegl,                University of Oslo,        Norway      (CCSD(R12))
  Luca Frediani,               UiT The Arctic U. of NorwayNorway      (PCM)
  Emmanuel Fromager,           Univ. Strasbourg,          France      (MC-srDFT)
  Bin Gao,                     UiT The Arctic U. of NorwayNorway      (Gen1Int library)
  Andre S. P. Gomes,           CNRS/Universite de Lille,  France      (Frozen density embedding)
  Christof Haettig,            Ruhr-University Bochum,    Germany     (CC module)
  Kasper Hald,                 Aarhus University,         Denmark     (CC module)
  Asger Halkier,               Aarhus University,         Denmark     (CC module)
  Frederik Beyer Hansen,       University of Copenhagen,  Denmark     (Parallel AO-SOPPA)
  Erik D. Hedegaard,           Univ. of Southern Denmark, Denmark     (Polarizable embedding, QM/MM, and MC-srDFT)
  Hanne Heiberg,               University of Oslo,        Norway      (Geometry analysis, selected one-electron integrals)
  Trygve Helgaker,             University of Oslo,        Norway      (DALTON; ABACUS, ERI, DFT modules, London, and much more)
  Alf Christian Hennum,        University of Oslo,        Norway      (Parity violation)
  Hinne Hettema,               University of Auckland,    New Zealand (Quadratic response in RESPONS; SIRIUS supersymmetry)
  Andreas E. Hillers-Bendtsen, University of Copenhagen,  Denmark     (MP3)
  Eirik Hjertenaes,            NTNU,                      Norway      (Cholesky decomposition)
  Nicolai Machholdt Hoeyer,    Aarhus University,         Denmark     (MP3)
  Pi A. B. Haase,              University of Copenhagen,  Denmark     (Triplet AO-SOPPA)
  Maria Francesca Iozzi,       University of Oslo,        Norway      (RPA)
  Christoph Jacob,             TU Braunschweig            Germany     (Frozen density embedding)
  Brano Jansik,                Technical Univ. of Ostrava Czech Rep.  (DFT cubic response)
  Hans Joergen Aa. Jensen,     Univ. of Southern Denmark, Denmark     (DALTON; SIRIUS, RESPONS, ABACUS, MC-srDFT, and much more)
  Dan Jonsson,                 UiT The Arctic U. of NorwayNorway      (Cubic response in RESPONS module)
  Poul Joergensen,             Aarhus University,         Denmark     (RESPONS, ABACUS, and CC modules)
  Maciej Kaminski,             University of Warsaw,      Poland      (CPPh in RESPONS)
  Joanna Kauczor,              Linkoeping University,     Sweden      (Complex polarization propagator (CPP) module)
  Sheela Kirpekar,             Univ. of Southern Denmark, Denmark     (Mass-velocity & Darwin integrals)
  Frederik Oersted Kjeldal,    Technical Univ. of Denmark,Denmark     (MP3)
  Erik Kjellgren,              Univ. of Southern Denmark, Denmark     (MC-srDFT)
  Wim Klopper,                 KIT Karlsruhe,             Germany     (R12 code in CC, SIRIUS, and ABACUS modules)
  Stefan Knecht,               ETH Zurich,                Switzerland (Parallel CI and MCSCF, MC-srDFT)
  Rika Kobayashi,              Australian National Univ., Australia   (DIIS in CC, London in MCSCF)
  Henrik Koch,                 NTNU,                      Norway      (CC module, Cholesky decomposition)
  Jacob Kongsted,              Univ. of Southern Denmark, Denmark     (Polarizable embedding, polarizable density embedding, QM/MM)
  Andrea Ligabue,              University of Modena,      Italy       (CTOCD, AOSOPPA)
  Nanna H. List,               Univ. of Southern Denmark, Denmark     (Polarizable embedding)
  Ola B. Lutnaes,              University of Oslo,        Norway      (DFT Hessian)
  Juan I. Melo,                University of Buenos Aires,Argentina   (LRESC, Relativistic Effects on NMR Shieldings)
  Kurt V. Mikkelsen,           University of Copenhagen,  Denmark     (MC-SCRF, QM/MM, and MP3)
  Rolf H. Myhre,               NTNU,                      Norway      (Subsystems and CC3)
  Christian Neiss,             Univ. Erlangen-Nuernberg,  Germany     (CCSD(R12))
  Christian B. Nielsen,        University of Copenhagen,  Denmark     (QM/MM)
  Patrick Norman,              KTH Stockholm,             Sweden      (Cubic response and complex frequency response in RESPONS)
  Jeppe Olsen,                 Aarhus University,         Denmark     (SIRIUS CI/density modules)
  Jogvan Magnus H. Olsen,      Aarhus University,         Denmark     (Polarizable embedding and polarizable density embedding)
  Anders Osted,                Copenhagen University,     Denmark     (QM/MM)
  Martin J. Packer,            University of Sheffield,   UK          (SOPPA)
  Filip Pawlowski,             Kazimierz Wielki UniversityPoland      (CC3)
  Morten N. Pedersen,          Univ. of Southern Denmark, Denmark     (Polarizable embedding)
  Thomas B. Pedersen,          University of Oslo,        Norway      (Cholesky decomposition)
  Patricio F. Provasi,         University of Northeastern,Argentina   (Analysis of coupling constants in localized orbitals)
  Peter Reinholdt,             Univ. of Southern Denmark, Denmark     (Polarizable embedding and polarizable density embedding)
  Zilvinas Rinkevicius,        KTH Stockholm,             Sweden      (open-shell DFT, ESR)
  Elias Rudberg,               KTH Stockholm,             Sweden      (DFT grid and basis info)
  Torgeir A. Ruden,            University of Oslo,        Norway      (Numerical derivatives in ABACUS)
  Kenneth Ruud,                UiT The Arctic U. of NorwayNorway      (DALTON; ABACUS magnetic properties and much more)
  Pawel Salek,                 KTH Stockholm,             Sweden      (DALTON; DFT code)
  Claire C. M. Samson,         University of Karlsruhe    Germany     (Boys localization, r12 integrals in ERI)
  Alfredo Sanchez de Meras,    University of Valencia,    Spain       (CC module, Cholesky decomposition)
  Trond Saue,                  Paul Sabatier University,  France      (direct Fock matrix construction)
  Stephan P. A. Sauer,         University of Copenhagen,  Denmark     (SOPPA(CCSD), SOPPA prop., AOSOPPA, vibrational g-factors)
  Bernd Schimmelpfennig,       Forschungszentrum KarlsruheGermany     (AMFI module)
  Anna K. Schnack-Petersen,    University of Copenhagen,  Denmark     (RPA(D) and HRPA(D) properties in AOSOPPA)
  Kristian Sneskov,            Aarhus University,         Denmark     (Polarizable embedding, QM/MM)
  Arnfinn H. Steindal,         UiT The Arctic U. of NorwayNorway      (parallel QM/MM, polarizable embedding)
  Casper Steinmann,            Aalborg University,        Denmark     (QFIT, polarizable embedding)
  K. O. Sylvester-Hvid,        University of Copenhagen,  Denmark     (MC-SCRF)
  Peter R. Taylor,             VLSCI/Univ. of Melbourne,  Australia   (Symmetry handling ABACUS, integral transformation)
  Andrew M. Teale,             University of Nottingham,  England     (DFT-AC, DFT-D)
  David P. Tew,                University of Bristol,     England     (CCSD(R12))
  Julien Toulouse,             Sorbonne Univ.,            France      (MC-srDFT)
  Olav Vahtras,                KTH Stockholm,             Sweden      (Triplet response, spin-orbit, ESR, TDDFT, open-shell DFT)
  Lucas Visscher,              Vrije Universiteit AmsterdaNetherlands (Frozen density embedding)
  David J. Wilson,             La Trobe University,       Australia   (DFT Hessian and DFT magnetizabilities)
  Luna Zamok,                  University of Copenhagen,  Denmark     (Block Lanczos RPA solver in SOPPA module)
  Hans Agren,                  KTH Stockholm,             Sweden      (SIRIUS module, RESPONS, MC-SCRF solvation)
 --------------------------------------------------------------------------------

     Date and time (Linux)  : Thu May  7 16:48:39 2026
     Host name              : debian                                  

 * Work memory size             :    64000000 =  488.28 megabytes.

 * Directories for basis set searches:
   1) /home/vdwv/DIPLOM_ITMO/CALCULATIONS_AND_SOFTS/softwares/Dalton_Shenanigans/dalton/dalton/build/diplom_files/c6h6_benzene/dft/c6h6_benzene_dft_b3lyp_ccpvdz
   2) /home/vdwv/DIPLOM_ITMO/CALCULATIONS_AND_SOFTS/softwares/Dalton_Shenanigans/dalton/dalton/build/basis


Compilation information
-----------------------

 Who compiled             | vdwv
 Host                     | debian
 System                   | Linux-6.12.73+deb13-amd64
 CMake generator          | Unix Makefiles
 Processor                | x86_64
 64-bit integers          | OFF
 MPI                      | OFF
 Fortran compiler         | /usr/bin/gfortran
 Fortran compiler version | GNU Fortran (Debian 14.2.0-19) 14.2.0
 C compiler               | /usr/bin/gcc
 C compiler version       | gcc (Debian 14.2.0-19) 14.2.0
 C++ compiler             | /usr/bin/g++
 C++ compiler version     | g++ (Debian 14.2.0-19) 14.2.0
 BLAS                     | /opt/intel/oneapi/mkl/2025.3/lib/intel64/libmkl_gf
                          | _lp64.so;/opt/intel/oneapi/mkl/2025.3/lib/intel64/
                          | libmkl_sequential.so;/opt/intel/oneapi/mkl/2025.3/
                          | lib/intel64/libmkl_core.so;/usr/lib/x86_64-linux-g
                          | nu/libpthread.a;/usr/lib/x86_64-linux-gnu/libm.so
 LAPACK                   | /opt/intel/oneapi/mkl/2025.3/lib/intel64/libmkl_la
                          | pack95_lp64.a;/opt/intel/oneapi/mkl/2025.3/lib/int
                          | el64/libmkl_gf_lp64.so
 Static linking           | OFF
 Last Git revision        | 1892235f9264b9be21ec2fefe6e0081d659ab244
 Git branch               | master
 Configuration time       | 2026-05-04 17:50:26.788788

 * Sequential calculation.


   Content of the .dal input file
 ----------------------------------

BASIS
cc-pVDZ
Benzene C6H6 using the cc-pVDZ basis
Using automatic symmetry detection
AtomTypes=2 Angstrom
Charge=6.0 Atoms=6
C1    0.000      1.399      0.000
C2    1.211      0.699      0.000
C3    1.211     -0.699      0.000
C4    0.000     -1.399      0.000
C5   -1.211     -0.699      0.000
C6   -1.211      0.699      0.000
Charge=1.0 Atoms=6
H7    0.000      2.491      0.000
H8    2.158      1.246      0.000
H9    2.158     -1.246      0.000
H10   0.000     -2.491      0.000
H11  -2.158     -1.246      0.000
H12  -2.158      1.246      0.000

**DALTON INPUT
.RUN WAVE FUN
**WAVE FUN
.DFT
 B3LYP
**END OF



       *******************************************************************
       *********** Output from DALTON general input processing ***********
       *******************************************************************

 --------------------------------------------------------------------------------
   Overall default print level:    0
   Print level for DALTON.STAT:    1

    HERMIT 1- and 2-electron integral sections will be executed
    "Old" integral transformation used (limited to max 255 basis functions)
    Wave function sections will be executed (SIRIUS module)
 --------------------------------------------------------------------------------


   ****************************************************************************
   *************** Output of molecule and basis set information ***************
   ****************************************************************************


    The two title cards from your ".mol" input:
    --------------------------------------------------------------------------------
 1: Benzene C6H6 using the cc-pVDZ basis
 2: Using automatic symmetry detection
    --------------------------------------------------------------------------------

  Coordinates are entered in Angstrom and converted to atomic units.
          - Conversion factor : 1 bohr = 0.52917721080 A

  Atomic type no.    1
  --------------------
  Nuclear charge:   6.00000
  Number of symmetry independent centers:    6
  Number of basis sets to read;    2
  Basis set file used for this atomic type with Z =   6 :
     "/home/vdwv/DIPLOM_ITMO/CALCULATIONS_AND_SOFTS/softwares/Dalton_Shenanigans/dalton/dalton/build/basis/cc-pVDZ"

  Atomic type no.    2
  --------------------
  Nuclear charge:   1.00000
  Number of symmetry independent centers:    6
  Number of basis sets to read;    2
  Basis set file used for this atomic type with Z =   1 :
     "/home/vdwv/DIPLOM_ITMO/CALCULATIONS_AND_SOFTS/softwares/Dalton_Shenanigans/dalton/dalton/build/basis/cc-pVDZ"


                      SYMADD: Addition of symmetry requested
                      --------------------------------------

 Symmetry test threshold:  5.00E-06

@  The molecule has been centered at center of mass and rotated
@  so the principal axes of inertia are along coordinate axes.

 Symmetry class found: D(2h)          

 Symmetry Independent Centres             
 ----------------------------
C3     6 :      0.00000000     2.28845834     1.32091856  Isotope  1
C4     6 :      0.00000000     0.00000000     2.64372685  Isotope  1
H10    1 :      0.00000000     0.00000000     4.70730778  Isotope  1
H9     1 :      0.00000000     4.07802898     2.35459875  Isotope  1

 The following symmetry elements were found:   X  Y  Z  


                         SYMGRP: Point group information
                         -------------------------------

@    Full point group is: D(2h)          
@    Represented as:      D2h

@  * The irrep name for each symmetry:    1: Ag     2: B3u    3: B2u    4: B1g    5: B1u    6: B2g    7: B3g    8: Au 


   * The point group was generated by:

      Reflection in the yz-plane
      Reflection in the xz-plane
      Reflection in the xy-plane

   * Group multiplication table

        |  E   C2z  C2y  C2x   i   Oxy  Oxz  Oyz
   -----+----------------------------------------
     E  |  E   C2z  C2y  C2x   i   Oxy  Oxz  Oyz
    C2z | C2z   E   C2x  C2y  Oxy   i   Oyz  Oxz
    C2y | C2y  C2x   E   C2z  Oxz  Oyz   i   Oxy
    C2x | C2x  C2y  C2z   E   Oyz  Oxz  Oxy   i 
     i  |  i   Oxy  Oxz  Oyz   E   C2z  C2y  C2x
    Oxy | Oxy   i   Oyz  Oxz  C2z   E   C2x  C2y
    Oxz | Oxz  Oyz   i   Oxy  C2y  C2x   E   C2z
    Oyz | Oyz  Oxz  Oxy   i   C2x  C2y  C2z   E 

   * Character table

        |  E   C2z  C2y  C2x   i   Oxy  Oxz  Oyz
   -----+----------------------------------------
    Ag  |   1    1    1    1    1    1    1    1
    B3u |   1   -1   -1    1   -1    1    1   -1
    B2u |   1   -1    1   -1   -1    1   -1    1
    B1g |   1    1   -1   -1    1    1   -1   -1
    B1u |   1    1   -1   -1   -1   -1    1    1
    B2g |   1   -1    1   -1    1   -1    1   -1
    B3g |   1   -1   -1    1    1   -1   -1    1
    Au  |   1    1    1    1   -1   -1   -1   -1

   * Direct product table

        | Ag   B3u  B2u  B1g  B1u  B2g  B3g  Au 
   -----+----------------------------------------
    Ag  | Ag   B3u  B2u  B1g  B1u  B2g  B3g  Au 
    B3u | B3u  Ag   B1g  B2u  B2g  B1u  Au   B3g
    B2u | B2u  B1g  Ag   B3u  B3g  Au   B1u  B2g
    B1g | B1g  B2u  B3u  Ag   Au   B3g  B2g  B1u
    B1u | B1u  B2g  B3g  Au   Ag   B3u  B2u  B1g
    B2g | B2g  B1u  Au   B3g  B3u  Ag   B1g  B2u
    B3g | B3g  Au   B1u  B2g  B2u  B1g  Ag   B3u
    Au  | Au   B3g  B2g  B1u  B1g  B2u  B3u  Ag 


                                 Isotopic Masses
                                 ---------------

                           C3  _1     12.000000
                           C3  _2     12.000000
                           C3  _3     12.000000
                           C3  _4     12.000000
                           C4  _1     12.000000
                           C4  _2     12.000000
                           H9  _1      1.007825
                           H9  _2      1.007825
                           H9  _3      1.007825
                           H9  _4      1.007825
                           H10 _1      1.007825
                           H10 _2      1.007825

                       Total mass:    78.046950 amu
                       Natural abundance:  93.495 %

 Center-of-mass coordinates (a.u.):    0.000000    0.000000    0.000000
 Center-of-mass coordinates (Angs):    0.000000    0.000000    0.000000


  Atoms and basis sets
  --------------------

  Number of atom types :    2
  Total number of atoms:   12

  Basis set used is "cc-pVDZ" from the basis set library.

  label    atoms   charge   prim   cont     basis
  ----------------------------------------------------------------------
  C4          6    6.0000    26    14      [9s4p1d|3s2p1d]                                    
  H1          6    1.0000     7     5      [4s1p|2s1p]                                        
  ----------------------------------------------------------------------
  total:     12   42.0000   198   114
  ----------------------------------------------------------------------
  Spherical harmonic basis used.

  Threshold for neglecting AO integrals:  1.00D-12


  Cartesian Coordinates (bohr)
  ----------------------------

  Total number of coordinates:   36
  C3  / 1 :     1  x   0.0000000000    2  y   2.2884583374    3  z   1.3209185614
  C3  / 2 :     4  x   0.0000000000    5  y  -2.2884583374    6  z   1.3209185614
  C3  / 3 :     7  x   0.0000000000    8  y   2.2884583374    9  z  -1.3209185614
  C3  / 4 :    10  x   0.0000000000   11  y  -2.2884583374   12  z  -1.3209185614
  C4  / 1 :    13  x   0.0000000000   14  y   0.0000000000   15  z   2.6437268489
  C4  / 2 :    16  x   0.0000000000   17  y   0.0000000000   18  z  -2.6437268489
  H9  / 1 :    19  x   0.0000000000   20  y   4.0780289777   21  z   2.3545987517
  H9  / 2 :    22  x   0.0000000000   23  y  -4.0780289777   24  z   2.3545987517
  H9  / 3 :    25  x   0.0000000000   26  y   4.0780289777   27  z  -2.3545987517
  H9  / 4 :    28  x   0.0000000000   29  y  -4.0780289777   30  z  -2.3545987517
  H10 / 1 :    31  x   0.0000000000   32  y   0.0000000000   33  z   4.7073077774
  H10 / 2 :    34  x   0.0000000000   35  y   0.0000000000   36  z  -4.7073077774


  Cartesian Coordinates (xyz format; angstrom)
  --------------------------------------------

   12

  C        0.0000000000            1.2110000000            0.6990000000
  C        0.0000000000           -1.2110000000            0.6990000000
  C        0.0000000000            1.2110000000           -0.6990000000
  C        0.0000000000           -1.2110000000           -0.6990000000
  C        0.0000000000            0.0000000000            1.3990000000
  C        0.0000000000            0.0000000000           -1.3990000000
  H        0.0000000000            2.1580000000            1.2460000000
  H        0.0000000000           -2.1580000000            1.2460000000
  H        0.0000000000            2.1580000000           -1.2460000000
  H        0.0000000000           -2.1580000000           -1.2460000000
  H        0.0000000000            0.0000000000            2.4910000000
  H        0.0000000000            0.0000000000           -2.4910000000


  Symmetry Coordinates
  --------------------

  Number of coordinates in each symmetry:     6    4    6    2    6    4    6    2

  Symmetry  Ag  ( 1)

    1   C3    y    [  2  -    5  +    8  -   11 ]/4
    2   C3    z    [  3  +    6  -    9  -   12 ]/4
    3   C4    z    [ 15  -   18 ]/2
    4   H9    y    [ 20  -   23  +   26  -   29 ]/4
    5   H9    z    [ 21  +   24  -   27  -   30 ]/4
    6   H10   z    [ 33  -   36 ]/2

  Symmetry  B3u ( 2)

    7   C3    x    [  1  +    4  +    7  +   10 ]/4
    8   C4    x    [ 13  +   16 ]/2
    9   H9    x    [ 19  +   22  +   25  +   28 ]/4
   10   H10   x    [ 31  +   34 ]/2

  Symmetry  B2u ( 3)

   11   C3    y    [  2  +    5  +    8  +   11 ]/4
   12   C3    z    [  3  -    6  -    9  +   12 ]/4
   13   C4    y    [ 14  +   17 ]/2
   14   H9    y    [ 20  +   23  +   26  +   29 ]/4
   15   H9    z    [ 21  -   24  -   27  +   30 ]/4
   16   H10   y    [ 32  +   35 ]/2

  Symmetry  B1g ( 4)

   17   C3    x    [  1  -    4  +    7  -   10 ]/4
   18   H9    x    [ 19  -   22  +   25  -   28 ]/4

  Symmetry  B1u ( 5)

   19   C3    y    [  2  -    5  -    8  +   11 ]/4
   20   C3    z    [  3  +    6  +    9  +   12 ]/4
   21   C4    z    [ 15  +   18 ]/2
   22   H9    y    [ 20  -   23  -   26  +   29 ]/4
   23   H9    z    [ 21  +   24  +   27  +   30 ]/4
   24   H10   z    [ 33  +   36 ]/2

  Symmetry  B2g ( 6)

   25   C3    x    [  1  +    4  -    7  -   10 ]/4
   26   C4    x    [ 13  -   16 ]/2
   27   H9    x    [ 19  +   22  -   25  -   28 ]/4
   28   H10   x    [ 31  -   34 ]/2

  Symmetry  B3g ( 7)

   29   C3    y    [  2  +    5  -    8  -   11 ]/4
   30   C3    z    [  3  -    6  +    9  -   12 ]/4
   31   C4    y    [ 14  -   17 ]/2
   32   H9    y    [ 20  +   23  -   26  -   29 ]/4
   33   H9    z    [ 21  -   24  +   27  -   30 ]/4
   34   H10   y    [ 32  -   35 ]/2

  Symmetry  Au  ( 8)

   35   C3    x    [  1  -    4  -    7  +   10 ]/4
   36   H9    x    [ 19  -   22  -   25  +   28 ]/4


   Interatomic separations (in Angstrom):
   --------------------------------------

            C3  _1      C3  _2      C3  _3      C3  _4      C4  _1      C4  _2
            ------      ------      ------      ------      ------      ------
 C3  _1:    0.000000
 C3  _2:    2.422000    0.000000
 C3  _3:    1.398000    2.796514    0.000000
 C3  _4:    2.796514    1.398000    2.422000    0.000000
 C4  _1:    1.398757    1.398757    2.422421    2.422421    0.000000
 C4  _2:    2.422421    2.422421    1.398757    1.398757    2.798000    0.000000
 H9  _1:    1.093626    3.413117    2.163292    3.890140    2.163417    3.413647
 H9  _2:    3.413117    1.093626    3.890140    2.163292    2.163417    3.413647
 H9  _3:    2.163292    3.890140    1.093626    3.413117    3.413647    2.163417
 H9  _4:    3.890140    2.163292    3.413117    1.093626    3.413647    2.163417
 H10 _1:    2.162819    2.162819    3.412129    3.412129    1.092000    3.890000
 H10 _2:    3.412129    3.412129    2.162819    2.162819    3.890000    1.092000

            H9  _1      H9  _2      H9  _3      H9  _4      H10 _1      H10 _2
            ------      ------      ------      ------      ------      ------
 H9  _1:    0.000000
 H9  _2:    4.316000    0.000000
 H9  _3:    2.492000    4.983766    0.000000
 H9  _4:    4.983766    2.492000    4.316000    0.000000
 H10 _1:    2.491383    2.491383    4.315337    4.315337    0.000000
 H10 _2:    4.315337    4.315337    2.491383    2.491383    4.982000    0.000000


  Max    interatomic separation is    4.9838 Angstrom (    9.4180 Bohr)
  between atoms    9 and    8, "H9  _3" and "H9  _2".

  Min HX interatomic separation is    1.0920 Angstrom (    2.0636 Bohr)

  Min YX interatomic separation is    1.3980 Angstrom (    2.6418 Bohr)


  Bond distances (Angstrom):
  --------------------------

                  atom 1     atom 2       distance
                  ------     ------       --------
  bond distance:  C3  _3     C3  _1       1.398000
  bond distance:  C3  _4     C3  _2       1.398000
  bond distance:  C4  _1     C3  _1       1.398757
  bond distance:  C4  _1     C3  _2       1.398757
  bond distance:  C4  _2     C3  _3       1.398757
  bond distance:  C4  _2     C3  _4       1.398757
  bond distance:  H9  _1     C3  _1       1.093626
  bond distance:  H9  _2     C3  _2       1.093626
  bond distance:  H9  _3     C3  _3       1.093626
  bond distance:  H9  _4     C3  _4       1.093626
  bond distance:  H10 _1     C4  _1       1.092000
  bond distance:  H10 _2     C4  _2       1.092000


  Bond angles (degrees):
  ----------------------

                  atom 1     atom 2     atom 3         angle
                  ------     ------     ------         -----
  bond angle:     C3  _3     C3  _1     C4  _1       120.029
  bond angle:     C3  _3     C3  _1     H9  _1       120.011
  bond angle:     C4  _1     C3  _1     H9  _1       119.959
  bond angle:     C3  _4     C3  _2     C4  _1       120.029
  bond angle:     C3  _4     C3  _2     H9  _2       120.011
  bond angle:     C4  _1     C3  _2     H9  _2       119.959
  bond angle:     C3  _1     C3  _3     C4  _2       120.029
  bond angle:     C3  _1     C3  _3     H9  _3       120.011
  bond angle:     C4  _2     C3  _3     H9  _3       119.959
  bond angle:     C3  _2     C3  _4     C4  _2       120.029
  bond angle:     C3  _2     C3  _4     H9  _4       120.011
  bond angle:     C4  _2     C3  _4     H9  _4       119.959
  bond angle:     C3  _1     C4  _1     C3  _2       119.941
  bond angle:     C3  _1     C4  _1     H10 _1       120.029
  bond angle:     C3  _2     C4  _1     H10 _1       120.029
  bond angle:     C3  _3     C4  _2     C3  _4       119.941
  bond angle:     C3  _3     C4  _2     H10 _2       120.029
  bond angle:     C3  _4     C4  _2     H10 _2       120.029




 Principal moments of inertia (u*A**2) and principal axes
 --------------------------------------------------------

   IA      89.166627          0.000000    0.000000    1.000000
   IB      89.191601          0.000000    1.000000    0.000000
   IC     178.358228          1.000000    0.000000    0.000000


 Rotational constants
 --------------------

@    The molecule is planar.

               A                   B                   C

           5667.8045           5666.2174           2833.5054 MHz
            0.189058            0.189005            0.094516 cm-1


@  Nuclear repulsion energy :  202.783368026496 Hartree


  Symmetry Orbitals
  -----------------

  Number of orbitals in each symmetry:          24    9   18    6   24    9   18    6


  Symmetry  Ag ( 1)

    1     C3       1s         1 +    2 +    3 +    4
    2     C3       1s         5 +    6 +    7 +    8
    3     C3       1s         9 +   10 +   11 +   12
    4     C3       2py       17 -   18 +   19 -   20
    5     C3       2pz       21 +   22 -   23 -   24
    6     C3       2py       29 -   30 +   31 -   32
    7     C3       2pz       33 +   34 -   35 -   36
    8     C3       3d1-      41 -   42 -   43 +   44
    9     C3       3d0       45 +   46 +   47 +   48
   10     C3       3d2+      53 +   54 +   55 +   56
   11     C4       1s        57 +   58
   12     C4       1s        59 +   60
   13     C4       1s        61 +   62
   14     C4       2pz       67 -   68
   15     C4       2pz       73 -   74
   16     C4       3d0       79 +   80
   17     C4       3d2+      83 +   84
   18     H9       1s        85 +   86 +   87 +   88
   19     H9       1s        89 +   90 +   91 +   92
   20     H9       2py       97 -   98 +   99 -  100
   21     H9       2pz      101 +  102 -  103 -  104
   22     H10      1s       105 +  106
   23     H10      1s       107 +  108
   24     H10      2pz      113 -  114


  Symmetry  B3u( 2)

   25     C3       2px       13 +   14 +   15 +   16
   26     C3       2px       25 +   26 +   27 +   28
   27     C3       3d2-      37 -   38 +   39 -   40
   28     C3       3d1+      49 +   50 -   51 -   52
   29     C4       2px       63 +   64
   30     C4       2px       69 +   70
   31     C4       3d1+      81 -   82
   32     H9       2px       93 +   94 +   95 +   96
   33     H10      2px      109 +  110


  Symmetry  B2u( 3)

   34     C3       1s         1 -    2 +    3 -    4
   35     C3       1s         5 -    6 +    7 -    8
   36     C3       1s         9 -   10 +   11 -   12
   37     C3       2py       17 +   18 +   19 +   20
   38     C3       2pz       21 -   22 -   23 +   24
   39     C3       2py       29 +   30 +   31 +   32
   40     C3       2pz       33 -   34 -   35 +   36
   41     C3       3d1-      41 +   42 -   43 -   44
   42     C3       3d0       45 -   46 +   47 -   48
   43     C3       3d2+      53 -   54 +   55 -   56
   44     C4       2py       65 +   66
   45     C4       2py       71 +   72
   46     C4       3d1-      77 -   78
   47     H9       1s        85 -   86 +   87 -   88
   48     H9       1s        89 -   90 +   91 -   92
   49     H9       2py       97 +   98 +   99 +  100
   50     H9       2pz      101 -  102 -  103 +  104
   51     H10      2py      111 +  112


  Symmetry  B1g( 4)

   52     C3       2px       13 -   14 +   15 -   16
   53     C3       2px       25 -   26 +   27 -   28
   54     C3       3d2-      37 +   38 +   39 +   40
   55     C3       3d1+      49 -   50 -   51 +   52
   56     C4       3d2-      75 +   76
   57     H9       2px       93 -   94 +   95 -   96


  Symmetry  B1u( 5)

   58     C3       1s         1 +    2 -    3 -    4
   59     C3       1s         5 +    6 -    7 -    8
   60     C3       1s         9 +   10 -   11 -   12
   61     C3       2py       17 -   18 -   19 +   20
   62     C3       2pz       21 +   22 +   23 +   24
   63     C3       2py       29 -   30 -   31 +   32
   64     C3       2pz       33 +   34 +   35 +   36
   65     C3       3d1-      41 -   42 +   43 -   44
   66     C3       3d0       45 +   46 -   47 -   48
   67     C3       3d2+      53 +   54 -   55 -   56
   68     C4       1s        57 -   58
   69     C4       1s        59 -   60
   70     C4       1s        61 -   62
   71     C4       2pz       67 +   68
   72     C4       2pz       73 +   74
   73     C4       3d0       79 -   80
   74     C4       3d2+      83 -   84
   75     H9       1s        85 +   86 -   87 -   88
   76     H9       1s        89 +   90 -   91 -   92
   77     H9       2py       97 -   98 -   99 +  100
   78     H9       2pz      101 +  102 +  103 +  104
   79     H10      1s       105 -  106
   80     H10      1s       107 -  108
   81     H10      2pz      113 +  114


  Symmetry  B2g( 6)

   82     C3       2px       13 +   14 -   15 -   16
   83     C3       2px       25 +   26 -   27 -   28
   84     C3       3d2-      37 -   38 -   39 +   40
   85     C3       3d1+      49 +   50 +   51 +   52
   86     C4       2px       63 -   64
   87     C4       2px       69 -   70
   88     C4       3d1+      81 +   82
   89     H9       2px       93 +   94 -   95 -   96
   90     H10      2px      109 -  110


  Symmetry  B3g( 7)

   91     C3       1s         1 -    2 -    3 +    4
   92     C3       1s         5 -    6 -    7 +    8
   93     C3       1s         9 -   10 -   11 +   12
   94     C3       2py       17 +   18 -   19 -   20
   95     C3       2pz       21 -   22 +   23 -   24
   96     C3       2py       29 +   30 -   31 -   32
   97     C3       2pz       33 -   34 +   35 -   36
   98     C3       3d1-      41 +   42 +   43 +   44
   99     C3       3d0       45 -   46 -   47 +   48
  100     C3       3d2+      53 -   54 -   55 +   56
  101     C4       2py       65 -   66
  102     C4       2py       71 -   72
  103     C4       3d1-      77 +   78
  104     H9       1s        85 -   86 -   87 +   88
  105     H9       1s        89 -   90 -   91 +   92
  106     H9       2py       97 +   98 -   99 -  100
  107     H9       2pz      101 -  102 +  103 -  104
  108     H10      2py      111 -  112


  Symmetry  Au ( 8)

  109     C3       2px       13 -   14 -   15 +   16
  110     C3       2px       25 -   26 -   27 +   28
  111     C3       3d2-      37 +   38 -   39 -   40
  112     C3       3d1+      49 -   50 +   51 -   52
  113     C4       3d2-      75 -   76
  114     H9       2px       93 -   94 -   95 +   96

  Symmetries of electric field:  B3u(2)  B2u(3)  B1u(5)

  Symmetries of magnetic field:  B3g(7)  B2g(6)  B1g(4)


                     .---------------------------------------.
                     | Starting in Integral Section (HERMIT) |
                     `---------------------------------------'



 ***************************************************************************************
 ****************** Output from **INTEGRALS input processing (HERMIT) ******************
 ***************************************************************************************


 - Using defaults, no **INTEGRALS input found

 Default print level:        1

 Calculation of one- and two-electron Hamiltonian integrals.

 Center of mass  (bohr):      0.000000000000      0.000000000000      0.000000000000
 Operator center (bohr):      0.000000000000      0.000000000000      0.000000000000
 Gauge origin    (bohr):      0.000000000000      0.000000000000      0.000000000000
 Dipole origin   (bohr):      0.000000000000      0.000000000000      0.000000000000

Calculation of 2-electron integrals are postponed until they are needed.


     ************************************************************************
     ************************** Output from HERINT **************************
     ************************************************************************



                      Nuclear contribution to dipole moments
                      --------------------------------------

                    All dipole components are zero by symmetry


  Total CPU  time used in HERMIT:   0.07 seconds
  Total wall time used in HERMIT:   0.07 seconds


                        .----------------------------------.
                        | End of Integral Section (HERMIT) |
                        `----------------------------------'



                   .--------------------------------------------.
                   | Starting in Wave Function Section (SIRIUS) |
                   `--------------------------------------------'


 *** Output from Huckel module :

     Using EWMO model:          F
     Using EHT  model:          T
     Number of Huckel orbitals each symmetry:    9    2    6    1    9    2    6    1

 Huckel EHT eigenvalues for symmetry :  1
          -11.413177     -11.376783      -1.564091      -0.875788      -0.787147
           -0.416704      -0.218012      -0.212865      -0.178485

 Huckel EHT eigenvalues for symmetry :  2
           -0.704061      -0.289632

 Huckel EHT eigenvalues for symmetry :  3
          -11.394432      -1.214406      -0.533448      -0.492604      -0.204773
           -0.168195

 Huckel EHT eigenvalues for symmetry :  4
           -0.459562

 Huckel EHT eigenvalues for symmetry :  5
          -11.394485     -11.362352      -1.214603      -0.626808      -0.533441
           -0.238638      -0.204568      -0.168083      -0.161631

 Huckel EHT eigenvalues for symmetry :  6
           -0.459488      -0.239141

 Huckel EHT eigenvalues for symmetry :  7
          -11.376747      -0.875600      -0.416570      -0.218109      -0.178508
           -0.164749

 Huckel EHT eigenvalues for symmetry :  8
           -0.289516

 **********************************************************************
 *SIRIUS* a direct, restricted step, second order MCSCF program       *
 **********************************************************************

 
     Date and time (Linux)  : Thu May  7 16:48:39 2026
     Host name              : debian                                  

 Title lines from ".mol" input file:
     Benzene C6H6 using the cc-pVDZ basis
     Using automatic symmetry detection

 Print level on unit LUPRI =   2 is   0
 Print level on unit LUW4  =   2 is   5

@    Restricted, closed shell Kohn-Sham DFT calculation.

 Initial molecular orbitals are obtained according to
 ".MOSTART EHT   " input option

     Wave function specification
     ============================
@    Wave function type        --- KS-DFT ---
@    Number of closed shell electrons          42
@    Number of electrons in active shells       0
@    Total charge of the molecule               0

@    Spin multiplicity and 2 M_S                1         0
@    Total number of symmetries                 8 (point group: D2h)
@    Reference state symmetry                   1 (irrep name : Ag )
 
     This is a DFT calculation of type: B3LYP
 Weighted mixed functional:
               HF exchange:    0.20000
                       VWN:    0.19000
                       LYP:    0.81000
                     Becke:    0.72000
                    Slater:    0.80000

     Orbital specifications
     ======================
@    Abelian symmetry species          All |    1    2    3    4    5    6    7    8
@                                          |  Ag   B3u  B2u  B1g  B1u  B2g  B3g  Au 
                                       --- |  ---  ---  ---  ---  ---  ---  ---  ---
@    Total number of orbitals          114 |   24    9   18    6   24    9   18    6
@    Number of basis functions         114 |   24    9   18    6   24    9   18    6

      ** Automatic occupation of RKS orbitals **

      -- Initial occupation of symmetries is determined from extended Huckel guess.           
      -- Initial occupation of symmetries is :
@    Occupied SCF orbitals              21 |    6    1    4    1    5    1    3    0

     Maximum number of Fock   iterations      0
     Maximum number of DIIS   iterations     60
     Maximum number of QC-SCF iterations     60
     Threshold for SCF convergence     1.00D-05
 
     This is a DFT calculation of type: B3LYP
 Weighted mixed functional:
               HF exchange:    0.20000
                       VWN:    0.19000
                       LYP:    0.81000
                     Becke:    0.72000
                    Slater:    0.80000


 ***********************************************
 ***** DIIS acceleration of SCF iterations *****
 ***********************************************

 C1-DIIS algorithm; max error vectors =    8

 Automatic occupation of symmetries with  42 electrons.

 Iter     Total energy    Error norm  Delta(E)    SCF occupation
 -----------------------------------------------------------------------------

---> (Re)generating AOTWOINT


     ************************************************************************
     ************************** Output from HERINT **************************
     ************************************************************************


***  INFO  GETGAB: GABSO--- not found on AOGABINT. Regenerating.

 Threshold for neglecting two-electron integrals:  1.00D-12
 HERMIT - Number of two-electron integrals written:     2833006 ( 13.2% )
 HERMIT - Megabytes written:                             32.548

  Total CPU  time used in TWOINT:   1.39 seconds
  Total wall time used in TWOINT:   1.40 seconds
  Time used in TWOINT     is       1.48 seconds
      K-S energy, electrons, error :    -27.180054768045  42.0000268806    2.69D-05
@  1  -231.235087452       4.20D+00  -2.31D+02     6   1   4   1   5   1   3   0
      Virial theorem: -V/T =      2.018539
@    MULPOP   C3  _1  0.25; C3  _2  0.25; C3  _3  0.25; C3  _4  0.25; C4  _1  0.24; C4  _2  0.24; H9  _1 -0.25; H9  _2 -0.25; H9  _3 -0.25; H9  _4 -0.25; 
@             H10 _1 -0.25; H10 _2 -0.25; 
   1  Level shift: doubly occupied orbital energies shifted by -2.00D-01
 -----------------------------------------------------------------------------
      K-S energy, electrons, error :    -28.372474872437  42.0000031523    3.15D-06
@  2  -231.905264651       1.70D+00  -6.70D-01     6   1   4   1   5   1   3   0
      Virial theorem: -V/T =      1.993162
@    MULPOP   C3  _1 -0.08; C3  _2 -0.08; C3  _3 -0.08; C3  _4 -0.08; C4  _1 -0.08; C4  _2 -0.08; H9  _1  0.08; H9  _2  0.08; H9  _3  0.08; H9  _4  0.08; 
@             H10 _1  0.08; H10 _2  0.08; 
   2  Level shift: doubly occupied orbital energies shifted by -1.00D-01
 -----------------------------------------------------------------------------
      K-S energy, electrons, error :    -27.890640256939  42.0000122315    1.22D-05
@  3  -232.087068360       5.86D-01  -1.82D-01     6   1   4   1   5   1   3   0
      Virial theorem: -V/T =      2.009944
@    MULPOP   C3  _1  0.08; C3  _2  0.08; C3  _3  0.08; C3  _4  0.08; C4  _1  0.08; C4  _2  0.08; H9  _1 -0.08; H9  _2 -0.08; H9  _3 -0.08; H9  _4 -0.08; 
@             H10 _1 -0.08; H10 _2 -0.08; 
   3  Level shift: doubly occupied orbital energies shifted by -5.00D-02
 -----------------------------------------------------------------------------
      K-S energy, electrons, error :    -27.962889205891  42.0000102118    1.02D-05
@  4  -232.108336277       6.90D-02  -2.13D-02     6   1   4   1   5   1   3   0
      Virial theorem: -V/T =      2.007510
@    MULPOP   C3  _1  0.04; C3  _2  0.04; C3  _3  0.04; C3  _4  0.04; C4  _1  0.04; C4  _2  0.04; H9  _1 -0.04; H9  _2 -0.04; H9  _3 -0.04; H9  _4 -0.04; 
@             H10 _1 -0.04; H10 _2 -0.04; 
   4  Level shift: doubly occupied orbital energies shifted by -1.25D-02
 -----------------------------------------------------------------------------
      K-S energy, electrons, error :    -27.980765389324  42.0000101684    1.02D-05
@  5  -232.108666131       4.16D-03  -3.30D-04     6   1   4   1   5   1   3   0
      Virial theorem: -V/T =      2.006950
@    MULPOP   C3  _1  0.03; C3  _2  0.03; C3  _3  0.03; C3  _4  0.03; C4  _1  0.03; C4  _2  0.03; H9  _1 -0.03; H9  _2 -0.03; H9  _3 -0.03; H9  _4 -0.03; 
@             H10 _1 -0.03; H10 _2 -0.03; 
 -----------------------------------------------------------------------------
      K-S energy, electrons, error :    -27.980336579161  42.0000101829    1.02D-05
@  6  -232.108667573       4.21D-04  -1.44D-06     6   1   4   1   5   1   3   0
      Virial theorem: -V/T =      2.006965
@    MULPOP   C3  _1  0.03; C3  _2  0.03; C3  _3  0.03; C3  _4  0.03; C4  _1  0.03; C4  _2  0.03; H9  _1 -0.03; H9  _2 -0.03; H9  _3 -0.03; H9  _4 -0.03; 
@             H10 _1 -0.03; H10 _2 -0.03; 
 -----------------------------------------------------------------------------
      K-S energy, electrons, error :    -27.980295011158  42.0000101850    1.02D-05
@  7  -232.108667574       4.34D-04  -1.11D-09     6   1   4   1   5   1   3   0
      Virial theorem: -V/T =      2.006966
@    MULPOP   C3  _1  0.03; C3  _2  0.03; C3  _3  0.03; C3  _4  0.03; C4  _1  0.03; C4  _2  0.03; H9  _1 -0.03; H9  _2 -0.03; H9  _3 -0.03; H9  _4 -0.03; 
@             H10 _1 -0.03; H10 _2 -0.03; 
 -----------------------------------------------------------------------------
      K-S energy, electrons, error :    -27.980292380814  42.0000101852    1.02D-05
@  8  -232.108667586       2.79D-05  -1.17D-08     6   1   4   1   5   1   3   0
      Virial theorem: -V/T =      2.006966
@    MULPOP   C3  _1  0.03; C3  _2  0.03; C3  _3  0.03; C3  _4  0.03; C4  _1  0.03; C4  _2  0.03; H9  _1 -0.03; H9  _2 -0.03; H9  _3 -0.03; H9  _4 -0.03; 
@             H10 _1 -0.03; H10 _2 -0.03; 
 -----------------------------------------------------------------------------
      K-S energy, electrons, error :    -27.980291968797  42.0000101853    1.02D-05
@  9  -232.108667586       3.41D-06  -4.91D-11     6   1   4   1   5   1   3   0

@ *** DIIS converged in   9 iterations !
@     Converged SCF energy, gradient:   -232.108667585618    3.41D-06
    - total time used in SIRFCK :              1.95 seconds


 *** SCF orbital energy analysis ***

 Only the 20 lowest virtual orbital energies printed in each symmetry.

 Number of electrons        :   42
 Closed shell orbitals      :    6    1    4    1    5    1    3    0

 Sym       Kohn-Sham orbital energies

1 Ag    -10.18820172   -10.18748758    -0.84887200    -0.59805340    -0.51665817
         -0.34025384     0.06014774     0.13568841     0.27971596     0.40616429
          0.51308938     0.52941319     0.64661912     0.78930972     0.99631924
          1.21413265     1.27925511     1.53852739     1.60191100     1.84707999
          1.98128775     2.35194451     2.42343694     2.89861627

2 B3u    -0.36254522    -0.00331539     0.46821364     0.59559693     0.83067572
          1.07457496     1.47826063     1.63058618     1.97670437

3 B2u   -10.18801013    -0.74156542    -0.44138202    -0.41643287     0.10069165
          0.29821045     0.41067717     0.51763759     0.65030085     0.88578184
          1.01425214     1.46186321     1.60241781     1.69329166     1.83694376
          1.84283740     2.41732188     2.62958285

4 B1g    -0.24995408     0.52249910     0.92767612     1.00883821     1.68058395
          1.79615020

5 B1u   -10.18796918   -10.18728825    -0.74156347    -0.45644249    -0.41663314
          0.10084737     0.15452595     0.29868102     0.46482086     0.51802035
          0.65066831     0.72218422     0.88614874     1.01406863     1.05917308
          1.60245893     1.69364170     1.72857965     1.84269762     2.00972410
          2.41876870     2.62966058     2.69660612     3.62977729

6 B2g    -0.24983945     0.15380143     0.52259197     0.67046058     1.00862652
          1.51238937     1.68150749     1.79656414     2.25381414

7 B3g   -10.18752723    -0.59772715    -0.33970694     0.13558037     0.27983112
          0.51316401     0.54429737     0.64634457     0.86053919     0.99641078
          1.27919907     1.60193620     1.84811200     1.88700248     1.98035847
          2.42291932     2.78413918     2.89773231

8 Au     -0.00305550     0.59565950     1.07474962     1.47800448     1.97628915
          2.19482372

    E(LUMO) :    -0.00331539 au (symmetry 2)
  - E(HOMO) :    -0.24983945 au (symmetry 6)
  ------------------------------------------
    gap     :     0.24652406 au

 --- Writing SIRIFC interface file

--------------------------------------------------------------------------------


     .-----------------------------------------------.
     | DFT KT IPs [a.u. & eV] from Koopmans' theorem |
     `-----------------------------------------------'


     DFT KT symmetry 1 ( Ag ) in point group D2h -- 6 principal poles with pole strength 1

   ============  ============  ============  ============  ============
      10.188202     10.187488      0.848872      0.598053      0.516658
     277.235071    277.215639     23.098982     16.273861     14.058984
   ============  ============  ============  ============  ============

   ============
       0.340254
       9.258778
   ============

     DFT KT symmetry 2 ( B3u) in point group D2h -- 1 principal poles with pole strength 1

   ============
       0.362545
       9.865357
   ============

     DFT KT symmetry 3 ( B2u) in point group D2h -- 4 principal poles with pole strength 1

   ============  ============  ============  ============
      10.188010      0.741565      0.441382      0.416433
     277.229858     20.179022     12.010616     11.331715
   ============  ============  ============  ============

     DFT KT symmetry 4 ( B1g) in point group D2h -- 1 principal poles with pole strength 1

   ============
       0.249954
       6.801597
   ============

     DFT KT symmetry 5 ( B1u) in point group D2h -- 5 principal poles with pole strength 1

   ============  ============  ============  ============  ============
      10.187969     10.187288      0.741563      0.456442      0.416633
     277.228744    277.210215     20.178968     12.420432     11.337164
   ============  ============  ============  ============  ============

     DFT KT symmetry 6 ( B2g) in point group D2h -- 1 principal poles with pole strength 1

   ============
       0.249839
       6.798477
   ============

     DFT KT symmetry 7 ( B3g) in point group D2h -- 3 principal poles with pole strength 1

   ============  ============  ============
      10.187527      0.597727      0.339707
     277.216718     16.264983      9.243896
   ============  ============  ============

@ Summary of DFT KT ionization potentials [eV]:

@ Symmetry 1 (Ag ) :   277.235     277.216      23.099      16.274      14.059
@                        9.259

@ Symmetry 2 (B3u) :     9.865

@ Symmetry 3 (B2u) :   277.230      20.179      12.011      11.332

@ Symmetry 4 (B1g) :     6.802

@ Symmetry 5 (B1u) :   277.229     277.210      20.179      12.420      11.337

@ Symmetry 6 (B2g) :     6.798

@ Symmetry 7 (B3g) :   277.217      16.265       9.244

@ Symmetry 8 (Au ) :  No IPs in this symmetry

  === End of DFT KT output ===
--------------------------------------------------------------------------------


 CPU and wall time for SCF :      10.732      10.754


                       .-----------------------------------.
                       | --- Final results from SIRIUS --- |
                       `-----------------------------------'


@    Spin multiplicity:           1
@    Spatial symmetry:            1 ( irrep  Ag  in D2h )
@    Total charge of molecule:    0

@    Final DFT energy:           -232.108667585618                 
@    Nuclear repulsion:           202.783368026496
@    Electronic energy:          -434.892035612115

@    Final gradient norm:           0.000003411698

 
     Date and time (Linux)  : Thu May  7 16:48:49 2026
     Host name              : debian                                  

File label for MO orbitals:   7May26   FOCKDIIS

 (Only coefficients > 0.0100 are printed.)

 Molecular orbitals for symmetry species 1  (Ag )
 ------------------------------------------------

    Orbital         1        2        3        4        5        6        7
   1 C3  :1s     0.4216  -0.2735  -0.0125  -0.0038  -0.0023  -0.0024   0.0131
   2 C3  :1s     0.0111  -0.0098   0.3611   0.2087   0.0343  -0.0174  -0.1098
   3 C3  :1s    -0.0090   0.0120  -0.1092  -0.0533   0.0053   0.0272  -0.4529
   4 C3  :2py    0.0010   0.0007  -0.0859   0.1760   0.2540  -0.0273  -0.1481
   5 C3  :2pz    0.0006  -0.0008  -0.0497  -0.2102   0.1455   0.3830  -0.0857
   6 C3  :2py   -0.0005  -0.0029   0.0299  -0.0550  -0.0679  -0.0273  -0.1458
   7 C3  :2pz   -0.0004   0.0003   0.0173   0.0490  -0.0389  -0.1045  -0.0844
   8 C3  :3d1-   0.0006   0.0003  -0.0030   0.0046  -0.0085   0.0055   0.0140
   9 C3  :3d0   -0.0003   0.0004   0.0056   0.0069   0.0033  -0.0154  -0.0072
  10 C3  :3d2+  -0.0002   0.0008  -0.0062   0.0051   0.0041  -0.0101  -0.0036
  11 C4  :1s     0.3858   0.5974  -0.0125   0.0076  -0.0023   0.0047   0.0131
  12 C4  :1s     0.0098   0.0209   0.3608  -0.4176   0.0330   0.0347  -0.1097
  13 C4  :1s    -0.0075  -0.0250  -0.1091   0.1067   0.0057  -0.0538  -0.4521
  14 C4  :2pz    0.0012  -0.0002  -0.0991  -0.0966   0.2927  -0.3352  -0.1699
  15 C4  :2pz   -0.0009   0.0046   0.0344   0.0469  -0.0787   0.1519  -0.1684
  16 C4  :3d0    0.0005   0.0007   0.0011   0.0015  -0.0094  -0.0253   0.0138
  17 C4  :3d2+   0.0004  -0.0008  -0.0088  -0.0013  -0.0033  -0.0121   0.0085
  18 H9  :1s    -0.0019   0.0013   0.0775   0.1304   0.2470   0.1956   0.1090
  19 H9  :1s     0.0022  -0.0006  -0.0376  -0.0465  -0.0823  -0.0174   0.6330
  22 H10 :1s    -0.0017  -0.0028   0.0777  -0.2629   0.2468  -0.3906   0.1086
  23 H10 :1s     0.0021   0.0014  -0.0377   0.0937  -0.0820   0.0346   0.6324
  24 H10 :2pz    0.0008   0.0014  -0.0081   0.0162  -0.0104   0.0058   0.0030

    Orbital         8        9       10       11       12       13       14
   1 C3  :1s    -0.0094   0.0198   0.0133  -0.0022  -0.1866  -0.0088   0.2046
   2 C3  :1s     0.1144  -0.0893   0.0132   0.1422  -0.8703  -0.0099   0.9135
   3 C3  :1s     0.5128  -1.1379   0.0503  -0.2565   0.8012   0.7878  -1.6144
   4 C3  :2py    0.0335   0.1706  -0.0194  -0.2869   0.2957   0.4276   0.3956
   5 C3  :2pz    0.1156   0.0456  -0.0107   0.4805   0.1636   0.0566   0.2281
   6 C3  :2py    0.1514   1.0229  -0.0004   0.2597  -0.2932  -1.4254  -0.7269
   7 C3  :2pz    0.3206  -0.3723  -0.0030  -0.7077  -0.1607  -0.1484  -0.4198
   8 C3  :3d1-   0.0103  -0.0102   0.0952   0.0351   0.0229  -0.1079  -0.0736
   9 C3  :3d0    0.0054  -0.0240  -0.0098  -0.0142  -0.0568  -0.0400   0.0413
  10 C3  :3d2+   0.0021  -0.0065  -0.0931   0.0721   0.0714  -0.0497   0.0135
  11 C4  :1s     0.0189  -0.0397   0.0135  -0.0013  -0.1866   0.0173   0.2046
  12 C4  :1s    -0.2292   0.1783   0.0144  -0.3115  -0.8652   0.0179   0.9137
  13 C4  :1s    -1.0297   2.2711   0.0560   0.5371   0.7967  -1.5725  -1.6126
  14 C4  :2pz   -0.1737  -0.3413  -0.0220   0.0286   0.3396  -0.7938   0.4577
  15 C4  :2pz   -0.5841  -1.4031  -0.0094   0.2451  -0.3456   2.6154  -0.8484
  16 C4  :3d0   -0.0115   0.0003   0.1329   0.0370  -0.0229   0.0877  -0.0695
  17 C4  :3d2+  -0.0044  -0.0143  -0.0108  -0.1361   0.0936   0.1039  -0.0503
  18 H9  :1s    -0.0218  -0.0166   0.6783  -0.3074   0.0047  -0.1810   0.0973
  19 H9  :1s    -0.6586  -0.4782  -0.6970   0.3451  -0.0496   0.8464   0.7215
  20 H9  :2py   -0.0035   0.0099   0.0537  -0.0282  -0.0143  -0.0600  -0.0901
  21 H9  :2pz    0.0103  -0.0228   0.0309  -0.0218  -0.0083  -0.0159  -0.0520
  22 H10 :1s     0.0428   0.0298   0.6766   0.6134  -0.0061   0.3635   0.0980
  23 H10 :1s     1.3227   0.9644  -0.6893  -0.6893  -0.0342  -1.6953   0.7273
  24 H10 :2pz   -0.0043   0.0055   0.0621   0.0701  -0.0180   0.1198  -0.1046

    Orbital        15       16
   1 C3  :1s    -0.2207   0.1382
   2 C3  :1s    -0.9416   0.5378
   3 C3  :1s     2.4435  -0.7680
   4 C3  :2py   -0.0037  -0.1260
   5 C3  :2pz   -0.1394  -0.0726
   6 C3  :2py   -0.1450  -0.1221
   7 C3  :2pz    1.0524  -0.0721
   8 C3  :3d1-  -0.1009  -0.1466
   9 C3  :3d0   -0.0653  -0.0932
  10 C3  :3d2+  -0.0128   0.3321
  11 C4  :1s     0.4413   0.1373
  12 C4  :1s     1.8825   0.5343
  13 C4  :1s    -4.8885  -0.7554
  14 C4  :2pz    0.1441  -0.1466
  15 C4  :2pz   -0.7992  -0.1471
  16 C4  :3d0    0.1179  -0.3130
  17 C4  :3d2+   0.0187   0.2044
  18 H9  :1s    -0.4165   0.7131
  19 H9  :1s    -0.1608  -0.2413
  20 H9  :2py    0.0138   0.0382
  21 H9  :2pz    0.0536   0.0221
  22 H10 :1s     0.8341   0.7139
  23 H10 :1s     0.3224  -0.2398
  24 H10 :2pz   -0.0771   0.0446

 Molecular orbitals for symmetry species 2  (B3u)
 ------------------------------------------------

    Orbital         1        2        3        4        5        6        7
   1 C3  :2px    0.3400  -0.2760  -0.5930   0.4346   0.1122   0.1080   0.1173
   2 C3  :2px   -0.0382  -0.1147   0.5668  -0.7410  -0.0650  -0.1110   0.2683
   3 C3  :3d2-  -0.0112  -0.0212   0.0326   0.0254   0.2504  -0.0645  -0.3239
   4 C3  :3d1+  -0.0065   0.0240   0.0189  -0.0525   0.1442   0.3227   0.2539
   5 C4  :2px    0.3398   0.5522  -0.5929  -0.8696   0.1123  -0.2151  -0.2348
   6 C4  :2px   -0.0381   0.2296   0.5666   1.4826  -0.0650   0.2213  -0.5370
   7 C4  :3d1+  -0.0129   0.0128   0.0377   0.0086   0.2887  -0.2106   0.3074
   8 H9  :2px    0.0076  -0.0094  -0.0073  -0.0076   0.1162   0.1170  -0.1781
   9 H10 :2px    0.0076   0.0189  -0.0075   0.0151   0.1160  -0.2336   0.3574

    Orbital         8        9
   1 C3  :2px   -0.1372   0.0132
   3 C3  :3d2-  -0.2167  -0.3597
   4 C3  :3d1+  -0.1254  -0.0929
   5 C4  :2px   -0.1376  -0.0241
   6 C4  :2px   -0.0054   0.0177
   7 C4  :3d1+  -0.2493   0.7183
   8 H9  :2px    0.4591   0.2807
   9 H10 :2px    0.4578  -0.5650

 Molecular orbitals for symmetry species 3  (B2u)
 ------------------------------------------------

    Orbital         1        2        3        4        5        6        7
   1 C3  :1s     0.5030  -0.0139   0.0000  -0.0009   0.0161   0.0156   0.0002
   2 C3  :1s     0.0165   0.4410  -0.0003  -0.0879  -0.0698  -0.0903   0.0009
   3 C3  :1s    -0.0169  -0.1351  -0.0003  -0.0538  -0.7113  -1.6011   0.0003
   4 C3  :2py   -0.0000   0.0123  -0.2075   0.3093  -0.2416   0.2149   0.2174
   5 C3  :2pz    0.0008  -0.0940   0.3639   0.2504  -0.1288  -0.0990  -0.3774
   6 C3  :2py    0.0022  -0.0054   0.0521  -0.0708  -0.2881   0.5314  -0.3374
   7 C3  :2pz   -0.0012   0.0162  -0.0916  -0.1023  -0.2388  -0.7137   0.5855
   8 C3  :3d1-   0.0003  -0.0022  -0.0017  -0.0022   0.0035  -0.0507   0.0207
   9 C3  :3d0   -0.0008   0.0123  -0.0025  -0.0077  -0.0011   0.0068   0.0307
  10 C3  :3d2+  -0.0003   0.0007  -0.0015  -0.0050   0.0046   0.0178   0.0176
  11 C4  :2py   -0.0014   0.1744   0.4179  -0.1315  -0.0186   0.3851  -0.4350
  12 C4  :2py    0.0043  -0.0331  -0.1043   0.1079   0.1255   1.7684   0.6734
  13 C4  :3d1-   0.0012  -0.0168  -0.0032   0.0182  -0.0058   0.0252   0.0411
  14 H9  :1s    -0.0020   0.1547   0.0019   0.3312   0.0624  -0.3242   0.0018
  15 H9  :1s     0.0017  -0.0659  -0.0005  -0.0726   1.0019   0.2321  -0.0019
  16 H9  :2py    0.0008  -0.0106  -0.0036  -0.0084  -0.0027  -0.0173  -0.0210
  17 H9  :2pz    0.0007  -0.0078   0.0061  -0.0022  -0.0016  -0.0220   0.0367
  18 H10 :2py   -0.0004   0.0029   0.0070  -0.0048  -0.0000   0.0208   0.0421

    Orbital         8        9       10       11       12       13       14
   1 C3  :1s     0.1041   0.0929  -0.3502   0.0603   0.0001   0.1985  -0.1111
   2 C3  :1s     0.2913   0.4848  -1.5589   0.3155   0.0005   0.8585  -0.5314
   3 C3  :1s    -0.3684   0.7095   4.1929   1.4570   0.0005  -1.0842  -2.1336
   4 C3  :2py   -0.1040   0.4322   0.0049  -0.4362  -0.1832  -0.2406   0.1859
   5 C3  :2pz   -0.3914  -0.0073  -0.2587  -0.2073   0.3173   0.1119   0.1835
   6 C3  :2py    0.4070  -1.4636  -0.5461   1.0768   0.3058   0.1907   0.1193
   7 C3  :2pz    0.3882   0.5618   1.4216   1.5028  -0.5269  -0.1657  -1.6889
   8 C3  :3d1-   0.0313  -0.1746  -0.0806  -0.0332   0.1722  -0.3008  -0.1292
   9 C3  :3d0    0.0359   0.0432  -0.0831   0.0976   0.2572   0.0229   0.2189
  10 C3  :3d2+  -0.1261  -0.0138   0.0521  -0.0389   0.1487   0.2740   0.0138
  11 C4  :2py    0.5766   0.4449   0.4526  -0.0779   0.3676  -0.4329  -0.1297
  12 C4  :2py   -0.2694  -2.4352  -3.0060  -1.5234  -0.6119   0.4751   3.0374
  13 C4  :3d1-   0.0239   0.1219   0.1606  -0.0795   0.3427   0.0303  -0.2111
  14 H9  :1s     0.5591  -0.1996  -0.1574  -0.9423  -0.0016   0.6116   0.7667
  15 H9  :1s    -0.7215   1.0468  -0.3121  -0.1970   0.0007  -0.4043  -0.2352
  16 H9  :2py    0.0793  -0.0796   0.0749  -0.0087  -0.0881   0.2144  -0.0943
  17 H9  :2pz    0.0238  -0.0385   0.0473   0.0459   0.1516   0.0236   0.2465
  18 H10 :2py    0.0379  -0.0130  -0.0069  -0.0881   0.1759   0.1747  -0.5169

 Molecular orbitals for symmetry species 4  (B1g)
 ------------------------------------------------

    Orbital         1        2        3        4        5        6
   1 C3  :2px    0.4481  -0.7039  -0.0003   0.2126   0.0245  -0.3271
   2 C3  :2px   -0.0056   0.8336   0.0003  -0.2665   0.0110  -0.0010
   3 C3  :3d2-   0.0013   0.0461   0.1577   0.2935   0.4358   0.1464
   4 C3  :3d1+  -0.0141   0.0661  -0.2729   0.1802   0.0325  -0.3506
   5 C4  :3d2-   0.0256  -0.0683  -0.3155  -0.0185   0.3795   0.7534
   6 H9  :2px    0.0114   0.0098  -0.0000   0.2029  -0.4842   0.2618

 Molecular orbitals for symmetry species 5  (B1u)
 ------------------------------------------------

    Orbital         1        2        3        4        5        6        7
   1 C3  :1s     0.3071   0.3988  -0.0080  -0.0067  -0.0006   0.0093   0.0202
   2 C3  :1s     0.0102   0.0152   0.2544   0.2328  -0.0492  -0.0409   0.2814
   3 C3  :1s    -0.0108  -0.0245  -0.0781   0.1015  -0.0306  -0.4119  -0.6830
   4 C3  :2py    0.0008  -0.0005  -0.0937   0.1669   0.2537  -0.1289   0.0965
   5 C3  :2pz   -0.0010  -0.0002   0.1205   0.0974   0.0170  -0.0927   0.0559
   6 C3  :2py   -0.0009   0.0062   0.0160  -0.1318  -0.1036  -0.2399   1.0521
   7 C3  :2pz    0.0038   0.0034  -0.0238  -0.0769   0.0478  -0.0124   0.6083
   8 C3  :3d1-   0.0008  -0.0004  -0.0110   0.0189   0.0093  -0.0014   0.0075
   9 C3  :3d0    0.0006   0.0009  -0.0074  -0.0111   0.0112  -0.0057  -0.0154
  10 C3  :3d2+   0.0004  -0.0011  -0.0080  -0.0029   0.0062  -0.0002   0.0180
  11 C4  :1s     0.5634  -0.4347  -0.0160   0.0067  -0.0010   0.0186  -0.0201
  12 C4  :1s     0.0184  -0.0164   0.5092  -0.2316  -0.1030  -0.0803  -0.2817
  13 C4  :1s    -0.0184   0.0257  -0.1561  -0.1005  -0.0632  -0.8235   0.6761
  14 C4  :2pz    0.0005   0.0005  -0.0418  -0.1980   0.4527  -0.3150  -0.1115
  15 C4  :2pz    0.0012  -0.0072   0.0037   0.1543  -0.1290  -0.4257  -1.2175
  16 C4  :3d0    0.0006  -0.0003  -0.0042  -0.0174   0.0028  -0.0003   0.0041
  17 C4  :3d2+   0.0005   0.0014  -0.0098  -0.0136   0.0010   0.0059  -0.0244
  18 H9  :1s    -0.0012  -0.0019   0.0893   0.3192   0.1934   0.0359  -0.1074
  19 H9  :1s     0.0010   0.0000  -0.0381  -0.0598  -0.0424   0.5803  -1.2202
  22 H10 :1s    -0.0023   0.0021   0.1792  -0.3232   0.3803   0.0710   0.1067
  23 H10 :1s     0.0020  -0.0001  -0.0763   0.0607  -0.0836   1.1583   1.2266
  24 H10 :2pz    0.0012  -0.0010  -0.0151   0.0100  -0.0095  -0.0037   0.0102

    Orbital         8        9       10       11       12       13       14
   1 C3  :1s     0.0090   0.0521   0.0601   0.0537  -0.0250  -0.2019   0.0349
   2 C3  :1s    -0.0523  -0.2346   0.1685   0.2794  -0.1855  -0.8989   0.1823
   3 C3  :1s    -0.9265  -3.9673  -0.2128   0.4102   2.2360   2.4285   0.8319
   4 C3  :2py   -0.0982   0.0863  -0.3927  -0.0056   0.6167  -0.2585  -0.2071
   5 C3  :2pz    0.3280   0.0493   0.3493   0.4416   0.3545   0.3037  -0.1984
   6 C3  :2py   -0.7169   2.5316   0.3888   0.5595  -2.4404   1.4201   1.5085
   7 C3  :2pz    1.3601   1.4631  -0.0423  -2.1135  -1.4020  -2.1935  -0.6487
   8 C3  :3d1-  -0.0148   0.0246   0.0320  -0.0306  -0.0196   0.0460  -0.0656
   9 C3  :3d0    0.0256  -0.0090   0.0416   0.1306   0.0502   0.0913  -0.0128
  10 C3  :3d2+   0.0229  -0.0129  -0.0610   0.0529  -0.0651   0.1101  -0.0620
  11 C4  :1s     0.0180  -0.0524   0.1205   0.1072   0.0255  -0.4044   0.0705
  12 C4  :1s    -0.1041   0.2333   0.3377   0.5603   0.1871  -1.8003   0.3688
  13 C4  :1s    -1.8532   3.9614  -0.4300   0.8191  -2.2382   4.8469   1.6848
  14 C4  :2pz    0.1580  -0.0999  -0.3290   0.4262  -0.7140  -0.1454  -0.5547
  15 C4  :2pz    0.1247  -2.9241   0.6301  -1.1403   2.8233   0.2807   1.9320
  16 C4  :3d0   -0.0584  -0.0279   0.1167  -0.1476  -0.0206  -0.0964  -0.0133
  17 C4  :3d2+  -0.0175  -0.0083  -0.1025  -0.1294   0.0818   0.0595  -0.1181
  18 H9  :1s    -0.1874   0.3495   0.3233  -0.1156   0.0333  -0.0910  -0.5461
  19 H9  :1s     0.1344  -1.4980  -0.4171   0.6057   1.1203  -0.1784  -0.1157
  20 H9  :2py   -0.0220   0.0283   0.0239  -0.0386  -0.0536   0.0472   0.0457
  21 H9  :2pz    0.0081   0.0164   0.0518  -0.0353  -0.0310   0.0202  -0.0617
  22 H10 :1s    -0.3741  -0.3494   0.6436  -0.2301  -0.0332  -0.1843  -1.0848
  23 H10 :1s     0.2635   1.4991  -0.8298   1.2099  -1.1282  -0.3638  -0.2272
  24 H10 :2pz   -0.0301  -0.0326   0.0931  -0.1021   0.0623   0.1025   0.0174

    Orbital        15
   1 C3  :1s    -0.1379
   2 C3  :1s    -0.7252
   3 C3  :1s    -1.7789
   4 C3  :2py    0.1342
   5 C3  :2pz    0.0781
   6 C3  :2py    2.5914
   7 C3  :2pz    1.4982
   8 C3  :3d1-  -0.1022
  10 C3  :3d2+   0.1126
  11 C4  :1s     0.1372
  12 C4  :1s     0.7215
  13 C4  :1s     1.7707
  14 C4  :2pz   -0.1541
  15 C4  :2pz   -3.0010
  16 C4  :3d0    0.1507
  17 C4  :3d2+  -0.0233
  18 H9  :1s    -0.9909
  19 H9  :1s    -0.4946
  20 H9  :2py   -0.0506
  21 H9  :2pz   -0.0290
  22 H10 :1s     0.9955
  23 H10 :1s     0.4980
  24 H10 :2pz    0.0590

 Molecular orbitals for symmetry species 6  (B2g)
 ------------------------------------------------

    Orbital         1        2        3        4        5        6        7
   1 C3  :2px    0.2586   0.4387  -0.4062   0.6313   0.1227  -0.0437   0.0142
   2 C3  :2px   -0.0032   0.3699   0.4808  -1.5249  -0.1538  -0.8943   0.0063
   3 C3  :3d2-  -0.0141   0.0163   0.0661   0.0232   0.1804   0.2167   0.0338
   4 C3  :3d1+   0.0175   0.0094  -0.0303   0.0135   0.0853   0.1255   0.3977
   5 C4  :2px    0.5174  -0.4385  -0.8132  -0.6308   0.2449   0.0438   0.0301
   6 C4  :2px   -0.0063  -0.3698   0.9632   1.5240  -0.3070   0.8936   0.0126
   7 C4  :3d1+  -0.0069  -0.0189   0.0842  -0.0269   0.3974  -0.2506   0.4550
   8 H9  :2px    0.0066   0.0208   0.0056  -0.0271   0.1171   0.3615  -0.2802
   9 H10 :2px    0.0132  -0.0208   0.0110   0.0270   0.2340  -0.3611  -0.5604

    Orbital         8        9
   1 C3  :2px    0.1892   0.1389
   2 C3  :2px    0.0000  -0.0500
   3 C3  :3d2-   0.3507  -0.5413
   4 C3  :3d1+  -0.5524  -0.3124
   5 C4  :2px    0.3782  -0.1374
   6 C4  :2px    0.0015   0.0496
   7 C4  :3d1+   0.0542   0.6262
   8 H9  :2px   -0.1503   0.3824
   9 H10 :2px   -0.3013  -0.3842

 Molecular orbitals for symmetry species 7  (B3g)
 ------------------------------------------------

    Orbital         1        2        3        4        5        6        7
   1 C3  :1s     0.5032  -0.0065  -0.0041  -0.0163   0.0344   0.0004   0.0002
   2 C3  :1s     0.0177   0.3614  -0.0301   0.1986  -0.1545  -0.2623  -0.0005
   3 C3  :1s    -0.0213  -0.0921   0.0469   0.8891  -1.9714   0.4564  -0.0149
   4 C3  :2py    0.0001  -0.0059   0.3510   0.1546   0.2431  -0.1438  -0.2191
   5 C3  :2pz   -0.0006   0.1767  -0.0276   0.0337   0.1698   0.2881   0.3783
   6 C3  :2py    0.0030  -0.0148  -0.1357   0.4954   0.8121   0.4080  -1.9504
   7 C3  :2pz    0.0029  -0.0552  -0.0273   0.1527   1.0229  -0.2643   3.3955
   8 C3  :3d1-   0.0004  -0.0033   0.0248   0.0062   0.0126  -0.0163   0.0035
   9 C3  :3d0    0.0007  -0.0048  -0.0038  -0.0082   0.0031   0.0895   0.0052
  10 C3  :3d2+  -0.0006  -0.0009  -0.0043  -0.0066   0.0145  -0.0856   0.0028
  11 C4  :2py   -0.0012   0.3119  -0.3988  -0.0967   0.0531   0.6469  -0.4355
  12 C4  :2py    0.0019  -0.0807   0.0886  -0.2342   0.9645  -0.8514  -3.9089
  13 C4  :3d1-   0.0010  -0.0112   0.0152  -0.0117   0.0299   0.0439  -0.0069
  14 H9  :1s    -0.0023   0.2268   0.3385  -0.0375  -0.0266   0.5328   0.0016
  15 H9  :1s     0.0011  -0.0809  -0.0299  -1.1421  -0.8325  -0.6012  -0.0048
  16 H9  :2py    0.0011  -0.0132  -0.0023   0.0063  -0.0113   0.0542  -0.0123
  17 H9  :2pz    0.0005  -0.0051  -0.0061  -0.0035   0.0100   0.0280   0.0217
  18 H10 :2py   -0.0002   0.0043  -0.0082  -0.0123   0.0285  -0.0053  -0.0249

    Orbital         8        9       10       11       12       13
   1 C3  :1s     0.0149  -0.0008  -0.3821   0.2988  -0.1613  -0.0830
   2 C3  :1s     0.0163  -0.0034  -1.6300   1.1696  -0.8237  -0.5560
   3 C3  :1s    -1.3645  -0.0024   4.2302  -4.2975  -0.6397  -1.1226
   4 C3  :2py   -0.5484   0.3355  -0.1441  -0.2561   0.3241   0.2778
   5 C3  :2pz   -0.4276  -0.5828  -0.0020   0.0723   0.1535   0.5238
   6 C3  :2py    1.7955  -2.9482   0.8928   3.3704  -0.6757   0.5731
   7 C3  :2pz    1.4160   5.1181  -0.1575   1.9877   0.2236   0.2326
   8 C3  :3d1-   0.0654  -0.0891  -0.0534  -0.1346  -0.0327   0.1178
   9 C3  :3d0   -0.1138  -0.1335   0.0693  -0.0448  -0.2020  -0.5288
  10 C3  :3d2+  -0.0190  -0.0767   0.0828  -0.0271  -0.0612   0.2282
  11 C4  :2py   -0.1917   0.6719   0.1351   0.3817  -0.0568   0.6359
  12 C4  :2py    0.6851  -5.9024  -1.1200   0.0583   1.0616  -0.0820
  13 C4  :3d1-  -0.1220   0.1782   0.1208  -0.2245  -0.3886  -0.4847
  14 H9  :1s     0.3140  -0.0016  -0.7223  -1.0294   0.2711  -0.0582
  15 H9  :1s    -1.4644  -0.0016  -0.2773  -0.5881  -0.0480  -0.1989
  16 H9  :2py    0.0850   0.0120   0.0693  -0.0980   0.0666  -0.1083
  17 H9  :2pz    0.0598  -0.0205   0.0136  -0.0774  -0.2209   0.1625
  18 H10 :2py    0.0188   0.0237  -0.0455  -0.0360  -0.4495   0.3833

 Molecular orbitals for symmetry species 8  (Au )
 ------------------------------------------------

    Orbital         1        2        3        4        5        6
   1 C3  :2px    0.4781  -0.7532  -0.1867  -0.2029  -0.0225   0.0009
   2 C3  :2px    0.1993   1.2843   0.1917  -0.4659   0.0158  -0.0002
   3 C3  :3d2-   0.0005   0.0232  -0.2480   0.1204   0.5099   0.3842
   4 C3  :3d1+   0.0212  -0.0255   0.0647   0.3238   0.3592  -0.6685
   5 C4  :3d2-   0.0362  -0.0670   0.3602   0.4409   0.1159   0.7700
   6 H9  :2px    0.0164   0.0132  -0.2025   0.3094  -0.4876   0.0009

  Total CPU  time used in SIRIUS :  10.75 seconds
  Total wall time used in SIRIUS :  10.77 seconds

 
     Date and time (Linux)  : Thu May  7 16:48:49 2026
     Host name              : debian                                  


                     .---------------------------------------.
                     | End of Wave Function Section (SIRIUS) |
                     `---------------------------------------'

  Total CPU  time used in DALTON:  10.83 seconds
  Total wall time used in DALTON:  10.85 seconds

 
     Date and time (Linux)  : Thu May  7 16:48:49 2026
     Host name              : debian                                  
