
    -----------------------------------------------------------------------
          Psi4: An Open-Source Ab Initio Electronic Structure Package
                               Psi4 1.10 release

                         Git: Rev {} zzzzzzz 


    D. G. A. Smith, L. A. Burns, A. C. Simmonett, R. M. Parrish,
    M. C. Schieber, R. Galvelis, P. Kraus, H. Kruse, R. Di Remigio,
    A. Alenaizan, A. M. James, S. Lehtola, J. P. Misiewicz, M. Scheurer,
    R. A. Shaw, J. B. Schriber, Y. Xie, Z. L. Glick, D. A. Sirianni,
    J. S. O'Brien, J. M. Waldrop, A. Kumar, E. G. Hohenstein,
    B. P. Pritchard, B. R. Brooks, H. F. Schaefer III, A. Yu. Sokolov,
    K. Patkowski, A. E. DePrince III, U. Bozkaya, R. A. King,
    F. A. Evangelista, J. M. Turney, T. D. Crawford, C. D. Sherrill,
    J. Chem. Phys. 152(18) 184108 (2020). https://doi.org/10.1063/5.0006002

                            Additional Code Authors
    E. T. Seidl, C. L. Janssen, E. F. Valeev, M. L. Leininger,
    J. F. Gonthier, R. M. Richard, H. R. McAlexander, M. Saitow, X. Wang,
    P. Verma, M. H. Lechner, A. Jiang, S. Behnle, A. G. Heide,
    M. F. Herbst, D. L. Poole, T. Győri, E. C. Mitchell, J. P. Pederson,
    and A. M. Wallace

             Previous Authors, Complete List of Code Contributors,
                       and Citations for Specific Modules
    https://github.com/psi4/psi4/blob/master/codemeta.json
    https://github.com/psi4/psi4/graphs/contributors
    https://psicode.org/psi4manual/master/introduction.html#citing-psifour

    -----------------------------------------------------------------------


    Psi4 started on: Tuesday, 05 May 2026 08:45AM

    Process ID: 7132
    Host:       debian
    PSIDATADIR: /home/vdwv/DIPLOM_ITMO/CALCULATIONS_AND_SOFTS/softwares/Psi4_Shenanigans/psi4conda/share/psi4
    Memory:     500.0 MiB
    Threads:    1
    Addons:     adcc, a̶m̶b̶i̶t̶, b̶s̶e̶, c̶c̶t̶3̶, c̶f̶o̶u̶r̶, c̶h̶e̶m̶p̶s̶2̶, c̶p̶p̶e̶, ddx, dftd3, dftd4,
                dkh, ecpint, einsums, f̶o̶r̶t̶e̶, g̶a̶u̶x̶c̶, gcp, g̶d̶m̶a̶, geometric,
                g̶p̶u̶_̶d̶f̶c̶c̶, i̶n̶t̶e̶g̶r̶a̶t̶o̶r̶x̶x̶, i̶p̶i̶, libefp, m̶d̶i̶, m̶p̶2̶d̶,
                m̶r̶c̶c̶, ooo, o̶p̶e̶n̶f̶e̶r̶m̶i̶o̶n̶p̶s̶i̶4̶, pcmsolver, p̶s̶i̶4̶f̶o̶c̶k̶c̶i̶,
                p̶s̶i̶x̶a̶s̶, r̶e̶s̶p̶, s̶i̶m̶i̶n̶t̶, s̶n̶s̶m̶p̶2̶, v̶2̶r̶d̶m̶_̶c̶a̶s̶s̶c̶f̶

  ==> Input File <==

--------------------------------------------------------------------------
#! Sample HF/cc-pVDZ CCl2O computation

memory 600 mb

molecule ccl2o {
  O1   0.000  0.000  1.648
  C2   0.000  0.000  0.492
  Cl3  0.000  1.448 -0.475
  Cl4  0.000 -1.448 -0.475
  units angstrom
}


set basis cc-pVDZ
energy('scf')

--------------------------------------------------------------------------

  Memory set to 572.205 MiB by Python driver.

Scratch directory: /tmp/
   => Libint2 <=

    Primary   basis highest AM E, G, H:  6, 6, 3
    Auxiliary basis highest AM E, G, H:  7, 7, 4
    Onebody   basis highest AM E, G, H:  -, -, -
    Solid Harmonics ordering:            Gaussian

*** tstart() called on debian
*** at Tue May  5 08:45:09 2026

   => Loading Basis Set <=

    Name: CC-PVDZ
    Role: ORBITAL
    Keyword: BASIS
    atoms 1   entry O          line   198 file /home/vdwv/DIPLOM_ITMO/CALCULATIONS_AND_SOFTS/softwares/Psi4_Shenanigans/psi4conda/share/psi4/basis/cc-pvdz.gbs 
    atoms 2   entry C          line   138 file /home/vdwv/DIPLOM_ITMO/CALCULATIONS_AND_SOFTS/softwares/Psi4_Shenanigans/psi4conda/share/psi4/basis/cc-pvdz.gbs 
    atoms 3-4 entry CL         line   658 file /home/vdwv/DIPLOM_ITMO/CALCULATIONS_AND_SOFTS/softwares/Psi4_Shenanigans/psi4conda/share/psi4/basis/cc-pvdz.gbs 


         ---------------------------------------------------------
                                   SCF
               by Justin Turney, Rob Parrish, Andy Simmonett
                          and Daniel G. A. Smith
                              RHF Reference
                        1 Threads,    572 MiB Core
         ---------------------------------------------------------

  ==> Geometry <==

    Molecular point group: c2v
    Full point group: C2v

    Geometry (in Angstrom), charge = 0, multiplicity = 1:

       Center              X                  Y                   Z               Mass       
    ------------   -----------------  -----------------  -----------------  -----------------
         O            0.000000000000     0.000000000000     1.657769888266    15.994914619570
         C            0.000000000000     0.000000000000     0.501769888266    12.000000000000
         CL          -0.000000000000     1.448000000000    -0.465230111734    34.968852682000
         CL           0.000000000000    -1.448000000000    -0.465230111734    34.968852682000

  Running in c2v symmetry.

  Rotational constants: A =      0.27139  B =      0.11496  C =      0.08075 [cm^-1]
  Rotational constants: A =   8136.08248  B =   3446.42392  C =   2420.92586 [MHz]
  Nuclear repulsion =  192.790218682632883

  Charge       = 0
  Multiplicity = 1
  Electrons    = 48
  Nalpha       = 24
  Nbeta        = 24

  ==> Algorithm <==

  SCF Algorithm Type is DF.
  DIIS enabled.
  MOM disabled.
  Fractional occupation disabled.
  Guess Type is SAD.
  Energy threshold   = 1.00e-06
  Density threshold  = 1.00e-06
  Integral threshold = 1.00e-12

  ==> Primary Basis <==

  Basis Set: CC-PVDZ
    Blend: CC-PVDZ
    Number of shells: 28
    Number of basis functions: 64
    Number of Cartesian functions: 68
    Spherical Harmonics?: true
    Max angular momentum: 2

   => Loading Basis Set <=

    Name: (CC-PVDZ AUX)
    Role: JKFIT
    Keyword: DF_BASIS_SCF
    atoms 1   entry O          line   221 file /home/vdwv/DIPLOM_ITMO/CALCULATIONS_AND_SOFTS/softwares/Psi4_Shenanigans/psi4conda/share/psi4/basis/cc-pvdz-jkfit.gbs 
    atoms 2   entry C          line   121 file /home/vdwv/DIPLOM_ITMO/CALCULATIONS_AND_SOFTS/softwares/Psi4_Shenanigans/psi4conda/share/psi4/basis/cc-pvdz-jkfit.gbs 
    atoms 3-4 entry CL         line   667 file /home/vdwv/DIPLOM_ITMO/CALCULATIONS_AND_SOFTS/softwares/Psi4_Shenanigans/psi4conda/share/psi4/basis/cc-pvdz-jkfit.gbs 

  ==> Integral Setup <==

  DFHelper Memory: AOs need 0.013 GiB; user supplied 0.419 GiB. 
  SCF_SUBTYPE=INCORE selected. In-core MEM_DF algorithm will be used.
  Using in-core AOs.

  ==> MemDFJK: Density-Fitted J/K Matrices <==

    J tasked:                   Yes
    K tasked:                   Yes
    wK tasked:                   No
    OpenMP threads:               1
    Memory [MiB]:               429
    Algorithm:                 Core
    Schwarz Cutoff:           1E-12
    Mask sparsity (%):       0.0000
    Fitting Condition:        1E-10

   => Auxiliary Basis Set <=

  Basis Set: (CC-PVDZ AUX)
    Blend: CC-PVDZ-JKFIT
    Number of shells: 120
    Number of basis functions: 364
    Number of Cartesian functions: 422
    Spherical Harmonics?: true
    Max angular momentum: 3

  Minimum eigenvalue in the overlap matrix is 1.2114589143E-02.
  Reciprocal condition number of the overlap matrix is 3.4969885390E-03.
    Using symmetric orthogonalization.

  ==> Pre-Iterations <==

  SCF Guess: Superposition of Atomic Densities via on-the-fly atomic UHF (no occupation information).

   -------------------------
    Irrep   Nso     Nmo    
   -------------------------
     A1        27      27 
     A2         7       7 
     B1        11      11 
     B2        19      19 
   -------------------------
    Total      64      64
   -------------------------

  ==> Iterations <==

                           Total Energy        Delta E     RMS |[F,P]|

   @DF-RHF iter SAD: -1033.21281795403434   -1.03321e+03   0.00000e+00 
   @DF-RHF iter   1: -1030.89021366723887    2.32260e+00   3.43557e-02 ADIIS/DIIS
   @DF-RHF iter   2: -1031.34227414876113   -4.52060e-01   2.53420e-02 ADIIS/DIIS
   @DF-RHF iter   3: -1031.72236588754936   -3.80092e-01   3.96759e-03 ADIIS/DIIS
   @DF-RHF iter   4: -1031.73245330513419   -1.00874e-02   1.11061e-03 ADIIS/DIIS
   @DF-RHF iter   5: -1031.73347098484396   -1.01768e-03   4.58385e-04 ADIIS/DIIS
   @DF-RHF iter   6: -1031.73369525334579   -2.24269e-04   1.63492e-04 ADIIS/DIIS
   @DF-RHF iter   7: -1031.73375618984187   -6.09365e-05   4.81188e-05 DIIS
   @DF-RHF iter   8: -1031.73376116862801   -4.97879e-06   1.31444e-05 DIIS
   @DF-RHF iter   9: -1031.73376151319781   -3.44570e-07   3.75892e-06 DIIS
   @DF-RHF iter  10: -1031.73376154163475   -2.84369e-08   7.73532e-07 DIIS
  Energy and wave function converged.


  ==> Post-Iterations <==

    Orbital Energies [Eh]
    ---------------------

    Doubly Occupied:                                                      

       1B2  -104.879217     1A1  -104.879216     2A1   -20.629681  
       3A1   -11.475270     2B2   -10.607410     4A1   -10.607364  
       3B2    -8.074888     5A1    -8.074884     1A2    -8.071138  
       1B1    -8.071135     4B2    -8.070896     6A1    -8.070894  
       7A1    -1.507350     8A1    -1.203398     5B2    -1.140856  
       9A1    -0.811010     6B2    -0.714741    10A1    -0.706218  
       2B1    -0.656563    11A1    -0.528222     2A2    -0.498614  
       3B1    -0.497537     7B2    -0.492162     8B2    -0.473159  

    Virtual:                                                              

       4B1     0.115647    12A1     0.128395     9B2     0.277217  
      13A1     0.378799    10B2     0.601974    14A1     0.628774  
       5B1     0.636354    15A1     0.676868    11B2     0.689015  
      16A1     0.705826     6B1     0.729194     3A2     0.743749  
      12B2     0.760339     4A2     0.817507    17A1     0.855084  
      18A1     0.918810     7B1     0.919179    13B2     0.926722  
       5A2     0.948483    19A1     0.979306    14B2     0.993542  
       8B1     1.043516    20A1     1.096076    15B2     1.144890  
       9B1     1.273478    21A1     1.274944    22A1     1.336444  
      16B2     1.389987    17B2     1.483103     6A2     1.551875  
      10B1     1.587061    23A1     1.893651    18B2     2.039987  
      24A1     2.048718    25A1     2.456228     7A2     2.969571  
      26A1     3.001794    11B1     3.410187    19B2     3.545429  
      27A1     3.849239  

    Final Occupation by Irrep:
             A1    A2    B1    B2 
    DOCC [    11,    2,    3,    8 ]
    NA   [    11,    2,    3,    8 ]
    NB   [    11,    2,    3,    8 ]

  @DF-RHF Final Energy: -1031.73376154163475

   => Energetics <=

    Nuclear Repulsion Energy =            192.7902186826328830
    One-Electron Energy =               -1807.5643685882553200
    Two-Electron Energy =                 583.0403883639876312
    Total Energy =                      -1031.7337615416347489

Computation Completed


Properties will be evaluated at   0.000000,   0.000000,   0.000000 [a0]

Properties computed using the SCF density matrix


 Multipole Moments:

 ------------------------------------------------------------------------------------
     Multipole            Electronic (a.u.)      Nuclear  (a.u.)        Total (a.u.)
 ------------------------------------------------------------------------------------

 L = 1.  Multiply by 2.5417464519 to convert [e a0] to [Debye]
 Dipole X            :          0.0000000            0.0000000            0.0000000
 Dipole Y            :          0.0000000            0.0000000            0.0000000
 Dipole Z            :         -1.3424666            0.8597397           -0.4827269
 Magnitude           :                                                    0.4827269

 ------------------------------------------------------------------------------------

*** tstop() called on debian at Tue May  5 08:45:11 2026
Module time:
	user time   =       1.56 seconds =       0.03 minutes
	system time =       0.09 seconds =       0.00 minutes
	total time  =          2 seconds =       0.03 minutes
Total time:
	user time   =       1.56 seconds =       0.03 minutes
	system time =       0.09 seconds =       0.00 minutes
	total time  =          2 seconds =       0.03 minutes

    Psi4 stopped on: Tuesday, 05 May 2026 08:45AM
    Psi4 wall time for execution: 0:00:01.72

*** Psi4 exiting successfully. Buy a developer a beer!
