
    -----------------------------------------------------------------------
          Psi4: An Open-Source Ab Initio Electronic Structure Package
                               Psi4 1.10 release

                         Git: Rev {} zzzzzzz 


    D. G. A. Smith, L. A. Burns, A. C. Simmonett, R. M. Parrish,
    M. C. Schieber, R. Galvelis, P. Kraus, H. Kruse, R. Di Remigio,
    A. Alenaizan, A. M. James, S. Lehtola, J. P. Misiewicz, M. Scheurer,
    R. A. Shaw, J. B. Schriber, Y. Xie, Z. L. Glick, D. A. Sirianni,
    J. S. O'Brien, J. M. Waldrop, A. Kumar, E. G. Hohenstein,
    B. P. Pritchard, B. R. Brooks, H. F. Schaefer III, A. Yu. Sokolov,
    K. Patkowski, A. E. DePrince III, U. Bozkaya, R. A. King,
    F. A. Evangelista, J. M. Turney, T. D. Crawford, C. D. Sherrill,
    J. Chem. Phys. 152(18) 184108 (2020). https://doi.org/10.1063/5.0006002

                            Additional Code Authors
    E. T. Seidl, C. L. Janssen, E. F. Valeev, M. L. Leininger,
    J. F. Gonthier, R. M. Richard, H. R. McAlexander, M. Saitow, X. Wang,
    P. Verma, M. H. Lechner, A. Jiang, S. Behnle, A. G. Heide,
    M. F. Herbst, D. L. Poole, T. Győri, E. C. Mitchell, J. P. Pederson,
    and A. M. Wallace

             Previous Authors, Complete List of Code Contributors,
                       and Citations for Specific Modules
    https://github.com/psi4/psi4/blob/master/codemeta.json
    https://github.com/psi4/psi4/graphs/contributors
    https://psicode.org/psi4manual/master/introduction.html#citing-psifour

    -----------------------------------------------------------------------


    Psi4 started on: Tuesday, 05 May 2026 08:38AM

    Process ID: 6946
    Host:       debian
    PSIDATADIR: /home/vdwv/DIPLOM_ITMO/CALCULATIONS_AND_SOFTS/softwares/Psi4_Shenanigans/psi4conda/share/psi4
    Memory:     500.0 MiB
    Threads:    1
    Addons:     adcc, a̶m̶b̶i̶t̶, b̶s̶e̶, c̶c̶t̶3̶, c̶f̶o̶u̶r̶, c̶h̶e̶m̶p̶s̶2̶, c̶p̶p̶e̶, ddx, dftd3, dftd4,
                dkh, ecpint, einsums, f̶o̶r̶t̶e̶, g̶a̶u̶x̶c̶, gcp, g̶d̶m̶a̶, geometric,
                g̶p̶u̶_̶d̶f̶c̶c̶, i̶n̶t̶e̶g̶r̶a̶t̶o̶r̶x̶x̶, i̶p̶i̶, libefp, m̶d̶i̶, m̶p̶2̶d̶,
                m̶r̶c̶c̶, ooo, o̶p̶e̶n̶f̶e̶r̶m̶i̶o̶n̶p̶s̶i̶4̶, pcmsolver, p̶s̶i̶4̶f̶o̶c̶k̶c̶i̶,
                p̶s̶i̶x̶a̶s̶, r̶e̶s̶p̶, s̶i̶m̶i̶n̶t̶, s̶n̶s̶m̶p̶2̶, v̶2̶r̶d̶m̶_̶c̶a̶s̶s̶c̶f̶

  ==> Input File <==

--------------------------------------------------------------------------
#! Sample HF/STO-3G CCl2O computation

memory 600 mb

molecule ccl2o {
  O1   0.000  0.000  1.707
  C2   0.000  0.000  0.513
  Cl3  0.000  1.496 -0.492
  Cl4  0.000 -1.496 -0.492
  units angstrom
}


set basis STO-3G
energy('scf')

--------------------------------------------------------------------------

  Memory set to 572.205 MiB by Python driver.

Scratch directory: /tmp/
   => Libint2 <=

    Primary   basis highest AM E, G, H:  6, 6, 3
    Auxiliary basis highest AM E, G, H:  7, 7, 4
    Onebody   basis highest AM E, G, H:  -, -, -
    Solid Harmonics ordering:            Gaussian

*** tstart() called on debian
*** at Tue May  5 08:38:56 2026

   => Loading Basis Set <=

    Name: STO-3G
    Role: ORBITAL
    Keyword: BASIS
    atoms 1   entry O          line    81 file /home/vdwv/DIPLOM_ITMO/CALCULATIONS_AND_SOFTS/softwares/Psi4_Shenanigans/psi4conda/share/psi4/basis/sto-3g.gbs 
    atoms 2   entry C          line    61 file /home/vdwv/DIPLOM_ITMO/CALCULATIONS_AND_SOFTS/softwares/Psi4_Shenanigans/psi4conda/share/psi4/basis/sto-3g.gbs 
    atoms 3-4 entry CL         line   195 file /home/vdwv/DIPLOM_ITMO/CALCULATIONS_AND_SOFTS/softwares/Psi4_Shenanigans/psi4conda/share/psi4/basis/sto-3g.gbs 


         ---------------------------------------------------------
                                   SCF
               by Justin Turney, Rob Parrish, Andy Simmonett
                          and Daniel G. A. Smith
                              RHF Reference
                        1 Threads,    572 MiB Core
         ---------------------------------------------------------

  ==> Geometry <==

    Molecular point group: c2v
    Full point group: C2v

    Geometry (in Angstrom), charge = 0, multiplicity = 1:

       Center              X                  Y                   Z               Mass       
    ------------   -----------------  -----------------  -----------------  -----------------
         O            0.000000000000     0.000000000000     1.716700871718    15.994914619570
         C            0.000000000000     0.000000000000     0.522700871718    12.000000000000
         CL          -0.000000000000     1.496000000000    -0.482299128282    34.968852682000
         CL           0.000000000000    -1.496000000000    -0.482299128282    34.968852682000

  Running in c2v symmetry.

  Rotational constants: A =      0.25280  B =      0.10770  C =      0.07552 [cm^-1]
  Rotational constants: A =   7578.60346  B =   3228.81107  C =   2264.17509 [MHz]
  Nuclear repulsion =  186.405236344690763

  Charge       = 0
  Multiplicity = 1
  Electrons    = 48
  Nalpha       = 24
  Nbeta        = 24

  ==> Algorithm <==

  SCF Algorithm Type is DF.
  DIIS enabled.
  MOM disabled.
  Fractional occupation disabled.
  Guess Type is SAD.
  Energy threshold   = 1.00e-06
  Density threshold  = 1.00e-06
  Integral threshold = 1.00e-12

  ==> Primary Basis <==

  Basis Set: STO-3G
    Blend: STO-3G
    Number of shells: 16
    Number of basis functions: 28
    Number of Cartesian functions: 28
    Spherical Harmonics?: true
    Max angular momentum: 1

   => Loading Basis Set <=

    Name: (STO-3G AUX)
    Role: JKFIT
    Keyword: DF_BASIS_SCF
    atoms 1   entry O          line   318 file /home/vdwv/DIPLOM_ITMO/CALCULATIONS_AND_SOFTS/softwares/Psi4_Shenanigans/psi4conda/share/psi4/basis/def2-universal-jkfit.gbs 
    atoms 2   entry C          line   198 file /home/vdwv/DIPLOM_ITMO/CALCULATIONS_AND_SOFTS/softwares/Psi4_Shenanigans/psi4conda/share/psi4/basis/def2-universal-jkfit.gbs 
    atoms 3-4 entry CL         line   986 file /home/vdwv/DIPLOM_ITMO/CALCULATIONS_AND_SOFTS/softwares/Psi4_Shenanigans/psi4conda/share/psi4/basis/def2-universal-jkfit.gbs 

  ==> Integral Setup <==

  DFHelper Memory: AOs need 0.004 GiB; user supplied 0.419 GiB. 
  SCF_SUBTYPE=INCORE selected. In-core MEM_DF algorithm will be used.
  Using in-core AOs.

  ==> MemDFJK: Density-Fitted J/K Matrices <==

    J tasked:                   Yes
    K tasked:                   Yes
    wK tasked:                   No
    OpenMP threads:               1
    Memory [MiB]:               429
    Algorithm:                 Core
    Schwarz Cutoff:           1E-12
    Mask sparsity (%):       9.4388
    Fitting Condition:        1E-10

   => Auxiliary Basis Set <=

  Basis Set: (STO-3G AUX)
    Blend: DEF2-UNIVERSAL-JKFIT
    Number of shells: 126
    Number of basis functions: 408
    Number of Cartesian functions: 492
    Spherical Harmonics?: true
    Max angular momentum: 4

  Minimum eigenvalue in the overlap matrix is 2.3836209862E-01.
  Reciprocal condition number of the overlap matrix is 1.2682590183E-01.
    Using symmetric orthogonalization.

  ==> Pre-Iterations <==

  SCF Guess: Superposition of Atomic Densities via on-the-fly atomic UHF (no occupation information).

   -------------------------
    Irrep   Nso     Nmo    
   -------------------------
     A1        13      13 
     A2         2       2 
     B1         4       4 
     B2         9       9 
   -------------------------
    Total      28      28
   -------------------------

  ==> Iterations <==

                           Total Energy        Delta E     RMS |[F,P]|

   @DF-RHF iter SAD: -1018.39914352096412   -1.01840e+03   0.00000e+00 
   @DF-RHF iter   1: -1019.78300227409488   -1.38386e+00   4.87418e-02 ADIIS/DIIS
   @DF-RHF iter   2: -1020.19577821154871   -4.12776e-01   3.55736e-02 ADIIS/DIIS
   @DF-RHF iter   3: -1020.35783911374142   -1.62061e-01   1.04430e-02 ADIIS/DIIS
   @DF-RHF iter   4: -1020.37554808218351   -1.77090e-02   1.77573e-03 ADIIS/DIIS
   @DF-RHF iter   5: -1020.37649868547885   -9.50603e-04   4.15147e-04 ADIIS/DIIS
   @DF-RHF iter   6: -1020.37662244824651   -1.23763e-04   1.43909e-04 ADIIS/DIIS
   @DF-RHF iter   7: -1020.37663196838400   -9.52014e-06   2.81376e-05 DIIS
   @DF-RHF iter   8: -1020.37663233758587   -3.69202e-07   2.39135e-06 DIIS
   @DF-RHF iter   9: -1020.37663233948308   -1.89721e-09   5.27486e-07 DIIS
  Energy and wave function converged.


  ==> Post-Iterations <==

    Orbital Energies [Eh]
    ---------------------

    Doubly Occupied:                                                      

       1B2  -103.762692     1A1  -103.762689     2A1   -20.430111  
       3A1   -11.294584     2B2   -10.441699     4A1   -10.441529  
       3B2    -7.885883     5A1    -7.885806     1B1    -7.879961  
       1A2    -7.879960     4B2    -7.879880     6A1    -7.879604  
       7A1    -1.452401     8A1    -1.112080     5B2    -1.048245  
       9A1    -0.743522     6B2    -0.647501    10A1    -0.616715  
       2B1    -0.593520    11A1    -0.457800     2A2    -0.444347  
       7B2    -0.429396     3B1    -0.428764     8B2    -0.411501  

    Virtual:                                                              

       4B1     0.203312    12A1     0.209829     9B2     0.385002  
      13A1     0.856613  

    Final Occupation by Irrep:
             A1    A2    B1    B2 
    DOCC [    11,    2,    3,    8 ]
    NA   [    11,    2,    3,    8 ]
    NB   [    11,    2,    3,    8 ]

  @DF-RHF Final Energy: -1020.37663233948308

   => Energetics <=

    Nuclear Repulsion Energy =            186.4052363446907634
    One-Electron Energy =               -1781.9433533747910587
    Two-Electron Energy =                 575.1614846906171579
    Total Energy =                      -1020.3766323394830806

Computation Completed


Properties will be evaluated at   0.000000,   0.000000,   0.000000 [a0]

Properties computed using the SCF density matrix


 Multipole Moments:

 ------------------------------------------------------------------------------------
     Multipole            Electronic (a.u.)      Nuclear  (a.u.)        Total (a.u.)
 ------------------------------------------------------------------------------------

 L = 1.  Multiply by 2.5417464519 to convert [e a0] to [Debye]
 Dipole X            :          0.0000000            0.0000000            0.0000000
 Dipole Y            :          0.0000000            0.0000000            0.0000000
 Dipole Z            :         -0.7289702            0.8912739            0.1623037
 Magnitude           :                                                    0.1623037

 ------------------------------------------------------------------------------------

*** tstop() called on debian at Tue May  5 08:38:56 2026
Module time:
	user time   =       0.72 seconds =       0.01 minutes
	system time =       0.05 seconds =       0.00 minutes
	total time  =          0 seconds =       0.00 minutes
Total time:
	user time   =       0.72 seconds =       0.01 minutes
	system time =       0.05 seconds =       0.00 minutes
	total time  =          0 seconds =       0.00 minutes

    Psi4 stopped on: Tuesday, 05 May 2026 08:38AM
    Psi4 wall time for execution: 0:00:00.85

*** Psi4 exiting successfully. Buy a developer a beer!
