
    -----------------------------------------------------------------------
          Psi4: An Open-Source Ab Initio Electronic Structure Package
                               Psi4 1.10 release

                         Git: Rev {} zzzzzzz 


    D. G. A. Smith, L. A. Burns, A. C. Simmonett, R. M. Parrish,
    M. C. Schieber, R. Galvelis, P. Kraus, H. Kruse, R. Di Remigio,
    A. Alenaizan, A. M. James, S. Lehtola, J. P. Misiewicz, M. Scheurer,
    R. A. Shaw, J. B. Schriber, Y. Xie, Z. L. Glick, D. A. Sirianni,
    J. S. O'Brien, J. M. Waldrop, A. Kumar, E. G. Hohenstein,
    B. P. Pritchard, B. R. Brooks, H. F. Schaefer III, A. Yu. Sokolov,
    K. Patkowski, A. E. DePrince III, U. Bozkaya, R. A. King,
    F. A. Evangelista, J. M. Turney, T. D. Crawford, C. D. Sherrill,
    J. Chem. Phys. 152(18) 184108 (2020). https://doi.org/10.1063/5.0006002

                            Additional Code Authors
    E. T. Seidl, C. L. Janssen, E. F. Valeev, M. L. Leininger,
    J. F. Gonthier, R. M. Richard, H. R. McAlexander, M. Saitow, X. Wang,
    P. Verma, M. H. Lechner, A. Jiang, S. Behnle, A. G. Heide,
    M. F. Herbst, D. L. Poole, T. Győri, E. C. Mitchell, J. P. Pederson,
    and A. M. Wallace

             Previous Authors, Complete List of Code Contributors,
                       and Citations for Specific Modules
    https://github.com/psi4/psi4/blob/master/codemeta.json
    https://github.com/psi4/psi4/graphs/contributors
    https://psicode.org/psi4manual/master/introduction.html#citing-psifour

    -----------------------------------------------------------------------


    Psi4 started on: Tuesday, 05 May 2026 10:05AM

    Process ID: 11114
    Host:       debian
    PSIDATADIR: /home/vdwv/DIPLOM_ITMO/CALCULATIONS_AND_SOFTS/softwares/Psi4_Shenanigans/psi4conda/share/psi4
    Memory:     500.0 MiB
    Threads:    1
    Addons:     adcc, a̶m̶b̶i̶t̶, b̶s̶e̶, c̶c̶t̶3̶, c̶f̶o̶u̶r̶, c̶h̶e̶m̶p̶s̶2̶, c̶p̶p̶e̶, ddx, dftd3, dftd4,
                dkh, ecpint, einsums, f̶o̶r̶t̶e̶, g̶a̶u̶x̶c̶, gcp, g̶d̶m̶a̶, geometric,
                g̶p̶u̶_̶d̶f̶c̶c̶, i̶n̶t̶e̶g̶r̶a̶t̶o̶r̶x̶x̶, i̶p̶i̶, libefp, m̶d̶i̶, m̶p̶2̶d̶,
                m̶r̶c̶c̶, ooo, o̶p̶e̶n̶f̶e̶r̶m̶i̶o̶n̶p̶s̶i̶4̶, pcmsolver, p̶s̶i̶4̶f̶o̶c̶k̶c̶i̶,
                p̶s̶i̶x̶a̶s̶, r̶e̶s̶p̶, s̶i̶m̶i̶n̶t̶, s̶n̶s̶m̶p̶2̶, v̶2̶r̶d̶m̶_̶c̶a̶s̶s̶c̶f̶

  ==> Input File <==

--------------------------------------------------------------------------
#! Sample DFT/STO-3G C6H6 computation

memory 600 mb

molecule c6h6 {
  C1   0.000  1.409  0.000
  C2   1.220  0.705  0.000
  C3   1.220 -0.705  0.000
  C4   0.000 -1.409  0.000
  C5  -1.220 -0.705  0.000
  C6  -1.220  0.705  0.000

  H7   0.000  2.508  0.000
  H8   2.172  1.254  0.000
  H9   2.172 -1.254  0.000
  H10  0.000 -2.508  0.000
  H11 -2.172 -1.254  0.000
  H12 -2.172  1.254  0.000

  units angstrom
}


set basis STO-3G
energy('scf', dft_functional = 'b3lyp')

--------------------------------------------------------------------------

  Memory set to 572.205 MiB by Python driver.

Scratch directory: /tmp/
   => Libint2 <=

    Primary   basis highest AM E, G, H:  6, 6, 3
    Auxiliary basis highest AM E, G, H:  7, 7, 4
    Onebody   basis highest AM E, G, H:  -, -, -
    Solid Harmonics ordering:            Gaussian

*** tstart() called on debian
*** at Tue May  5 10:05:47 2026

   => Loading Basis Set <=

    Name: STO-3G
    Role: ORBITAL
    Keyword: BASIS
    atoms 1-6  entry C          line    61 file /home/vdwv/DIPLOM_ITMO/CALCULATIONS_AND_SOFTS/softwares/Psi4_Shenanigans/psi4conda/share/psi4/basis/sto-3g.gbs 
    atoms 7-12 entry H          line    19 file /home/vdwv/DIPLOM_ITMO/CALCULATIONS_AND_SOFTS/softwares/Psi4_Shenanigans/psi4conda/share/psi4/basis/sto-3g.gbs 


         ---------------------------------------------------------
                                   SCF
               by Justin Turney, Rob Parrish, Andy Simmonett
                          and Daniel G. A. Smith
                              RKS Reference
                        1 Threads,    572 MiB Core
         ---------------------------------------------------------

  ==> Geometry <==

    Molecular point group: d2h
    Full point group: D2h

    Geometry (in Angstrom), charge = 0, multiplicity = 1:

       Center              X                  Y                   Z               Mass       
    ------------   -----------------  -----------------  -----------------  -----------------
         C           -0.000000000000     1.409000000000     0.000000000000    12.000000000000
         C            1.220000000000     0.705000000000     0.000000000000    12.000000000000
         C            1.220000000000    -0.705000000000     0.000000000000    12.000000000000
         C            0.000000000000    -1.409000000000     0.000000000000    12.000000000000
         C           -1.220000000000    -0.705000000000     0.000000000000    12.000000000000
         C           -1.220000000000     0.705000000000     0.000000000000    12.000000000000
         H           -0.000000000000     2.508000000000     0.000000000000     1.007825032230
         H            2.172000000000     1.254000000000     0.000000000000     1.007825032230
         H            2.172000000000    -1.254000000000     0.000000000000     1.007825032230
         H            0.000000000000    -2.508000000000     0.000000000000     1.007825032230
         H           -2.172000000000    -1.254000000000     0.000000000000     1.007825032230
         H           -2.172000000000     1.254000000000     0.000000000000     1.007825032230

  Running in d2h symmetry.

  Rotational constants: A =      0.18635  B =      0.18623  C =      0.09314 [cm^-1]
  Rotational constants: A =   5586.69381  B =   5582.95385  C =   2792.41160 [MHz]
  Nuclear repulsion =  201.332604127778922

  Charge       = 0
  Multiplicity = 1
  Electrons    = 42
  Nalpha       = 21
  Nbeta        = 21

  ==> Algorithm <==

  SCF Algorithm Type is DF.
  DIIS enabled.
  MOM disabled.
  Fractional occupation disabled.
  Guess Type is SAD.
  Energy threshold   = 1.00e-06
  Density threshold  = 1.00e-06
  Integral threshold = 1.00e-12

  ==> Primary Basis <==

  Basis Set: STO-3G
    Blend: STO-3G
    Number of shells: 24
    Number of basis functions: 36
    Number of Cartesian functions: 36
    Spherical Harmonics?: true
    Max angular momentum: 1

  ==> DFT Potential <==

   => LibXC <=

    Version 7.0.0
    S. Lehtola, C. Steigemann, M. J.T. Oliveira, and M. A.L. Marques.,  SoftwareX 7, 1–5 (2018) (10.1016/j.softx.2017.11.002)

   => Composite Functional: B3LYP <= 

    B3LYP Hyb-GGA Exchange-Correlation Functional

    P. J. Stephens, F. J. Devlin, C. F. Chabalowski, and M. J. Frisch.,  J. Phys. Chem. 98, 11623 (1994) (10.1021/j100096a001)

    Deriv               =              1
    GGA                 =           TRUE
    Meta                =          FALSE

    Exchange Hybrid     =           TRUE
    MP2 Hybrid          =          FALSE

   => Exchange Functionals <=

    0.0800   Slater exchange
    0.7200         Becke 88

   => Exact (HF) Exchange <=

    0.2000               HF 

   => Correlation Functionals <=

    0.1900   Vosko, Wilk & Nusair (VWN5_RPA)
    0.8100   Lee, Yang & Parr

   => LibXC Density Thresholds  <==

    XC_HYB_GGA_XC_B3LYP:  1.00E-15 

   => Molecular Quadrature <=

    Radial Scheme          =       TREUTLER
    Pruning Scheme         =           NONE
    Nuclear Scheme         =       TREUTLER

    Blocking Scheme        =         OCTREE
    BS radius alpha        =              1
    Pruning alpha          =              1
    Radial Points          =             75
    Spherical Points       =            302
    Total Points           =         252278
    Total Blocks           =           1948
    Max Points             =            256
    Max Functions          =             36
    Weights Tolerance      =       1.00E-15

   => Loading Basis Set <=

    Name: (STO-3G AUX)
    Role: JKFIT
    Keyword: DF_BASIS_SCF
    atoms 1-6  entry C          line   198 file /home/vdwv/DIPLOM_ITMO/CALCULATIONS_AND_SOFTS/softwares/Psi4_Shenanigans/psi4conda/share/psi4/basis/def2-universal-jkfit.gbs 
    atoms 7-12 entry H          line    18 file /home/vdwv/DIPLOM_ITMO/CALCULATIONS_AND_SOFTS/softwares/Psi4_Shenanigans/psi4conda/share/psi4/basis/def2-universal-jkfit.gbs 

  ==> Integral Setup <==

  DFHelper Memory: AOs need 0.008 GiB; user supplied 0.183 GiB. 
  SCF_SUBTYPE=INCORE selected. In-core MEM_DF algorithm will be used.
  Using in-core AOs.

  ==> MemDFJK: Density-Fitted J/K Matrices <==

    J tasked:                   Yes
    K tasked:                   Yes
    wK tasked:                   No
    OpenMP threads:               1
    Memory [MiB]:               187
    Algorithm:                 Core
    Schwarz Cutoff:           1E-12
    Mask sparsity (%):       1.3889
    Fitting Condition:        1E-10

   => Auxiliary Basis Set <=

  Basis Set: (STO-3G AUX)
    Blend: DEF2-UNIVERSAL-JKFIT
    Number of shells: 186
    Number of basis functions: 558
    Number of Cartesian functions: 654
    Spherical Harmonics?: true
    Max angular momentum: 4

  Cached 100.0% of DFT collocation blocks in 0.236 [GiB].

  Minimum eigenvalue in the overlap matrix is 1.8358402846E-01.
  Reciprocal condition number of the overlap matrix is 8.4789799503E-02.
    Using symmetric orthogonalization.

  ==> Pre-Iterations <==

  SCF Guess: Superposition of Atomic Densities via on-the-fly atomic UHF (no occupation information).

   -------------------------
    Irrep   Nso     Nmo    
   -------------------------
     Ag         9       9 
     B1g        6       6 
     B2g        1       1 
     B3g        2       2 
     Au         1       1 
     B1u        2       2 
     B2u        9       9 
     B3u        6       6 
   -------------------------
    Total      36      36
   -------------------------

  ==> Iterations <==

                           Total Energy        Delta E     RMS |[F,P]|

   @DF-RKS iter SAD:  -208.74516551898591   -2.08745e+02   0.00000e+00 
   @DF-RKS iter   1:  -225.24526567910962   -1.65001e+01   1.28200e-01 ADIIS
   @DF-RKS iter   2:  -228.08818333790151   -2.84292e+00   7.77889e-02 ADIIS/DIIS
   @DF-RKS iter   3:  -229.30535819175142   -1.21717e+00   2.40110e-02 ADIIS/DIIS
   @DF-RKS iter   4:  -229.40883450063788   -1.03476e-01   1.92466e-03 ADIIS/DIIS
   @DF-RKS iter   5:  -229.40948458577455   -6.50085e-04   2.88046e-04 ADIIS/DIIS
   @DF-RKS iter   6:  -229.40949669584768   -1.21101e-05   1.11355e-04 ADIIS/DIIS
   @DF-RKS iter   7:  -229.40949862720211   -1.93135e-06   3.43522e-06 DIIS
   @DF-RKS iter   8:  -229.40949862933107   -2.12896e-09   1.35064e-07 DIIS
  Energy and wave function converged.


  ==> Post-Iterations <==

   Electrons on quadrature grid:
      Ntotal   =   42.0000170428 ; deviation = 1.704e-05 

    Orbital Energies [Eh]
    ---------------------

    Doubly Occupied:                                                      

       1B2u  -10.006571     1Ag   -10.006212     1B1g  -10.006195  
       2B2u  -10.005559     1B3u  -10.005535     2Ag   -10.005063  
       3Ag    -0.799731     3B2u   -0.696618     2B3u   -0.696258  
       2B1g   -0.556647     4Ag    -0.556392     5Ag    -0.478405  
       4B2u   -0.423393     3B3u   -0.390717     5B2u   -0.375820  
       4B3u   -0.375552     1B1u   -0.309824     3B1g   -0.297072  
       6Ag    -0.296616     1B3g   -0.192564     1B2g   -0.192141  

    Virtual:                                                              

       1Au     0.088938     2B1u    0.089436     2B3g    0.250232  
       7Ag     0.338854     6B2u    0.392936     5B3u    0.393575  
       7B2u    0.444778     4B1g    0.455827     8Ag     0.456449  
       5B1g    0.580820     9Ag     0.581634     8B2u    0.589736  
       6B3u    0.590716     6B1g    0.742814     9B2u    0.796458  

    Final Occupation by Irrep:
             Ag   B1g   B2g   B3g    Au   B1u   B2u   B3u 
    DOCC [     6,    3,    1,    1,    0,    1,    5,    4 ]
    NA   [     6,    3,    1,    1,    0,    1,    5,    4 ]
    NB   [     6,    3,    1,    1,    0,    1,    5,    4 ]

  @DF-RKS Final Energy:  -229.40949862933107

   => Energetics <=

    Nuclear Repulsion Energy =            201.3326041277789216
    One-Electron Energy =                -707.9690954764403159
    Two-Electron Energy =                 305.3027848170822267
    DFT Exchange-Correlation Energy =     -28.0757920977518936
    Empirical Dispersion Energy =           0.0000000000000000
    VV10 Nonlocal Energy =                  0.0000000000000000
    Total Energy =                       -229.4094986293310399

Computation Completed


Properties will be evaluated at   0.000000,   0.000000,   0.000000 [a0]

Properties computed using the SCF density matrix


 Multipole Moments:

 ------------------------------------------------------------------------------------
     Multipole            Electronic (a.u.)      Nuclear  (a.u.)        Total (a.u.)
 ------------------------------------------------------------------------------------

 L = 1.  Multiply by 2.5417464519 to convert [e a0] to [Debye]
 Dipole X            :          0.0000000            0.0000000            0.0000000
 Dipole Y            :          0.0000000            0.0000000            0.0000000
 Dipole Z            :          0.0000000            0.0000000            0.0000000
 Magnitude           :                                                    0.0000000

 ------------------------------------------------------------------------------------

*** tstop() called on debian at Tue May  5 10:05:54 2026
Module time:
	user time   =       6.90 seconds =       0.11 minutes
	system time =       0.44 seconds =       0.01 minutes
	total time  =          7 seconds =       0.12 minutes
Total time:
	user time   =       6.90 seconds =       0.11 minutes
	system time =       0.44 seconds =       0.01 minutes
	total time  =          7 seconds =       0.12 minutes

    Psi4 stopped on: Tuesday, 05 May 2026 10:05AM
    Psi4 wall time for execution: 0:00:07.48

*** Psi4 exiting successfully. Buy a developer a beer!
